# vtk DataFile Version 4.2
3D Slicer output. SPACE=RAS
ASCII
DATASET POLYDATA
POINTS 2697 float
-118.309 -90.117 49.8319 -118.223 -90.0707 49.8878 -118.23 -90.1589 49.8147 
-118.385 -90.1044 49.8536 -118.244 -90.2746 49.7701 -118.394 -90.1792 49.8091 
-118.487 -90.158 49.8642 -118.391 -90.2948 49.7675 -118.242 -91.6899 49.275 
-118.225 -91.9211 49.2085 -118.71 -91.8959 49.2153 -118.526 -91.6676 49.2804 
-118.939 -91.902 49.2412 -118.808 -91.7024 49.2948 -119.1 -91.8967 49.2791 
-118.387 -92.1291 49.154 -118.117 -92.116 49.1841 -118.898 -92.1051 49.1879 
-118.31 -92.3651 49.1254 -118.585 -92.3706 49.1201 -119.366 -92.2378 49.2908 
-118.238 -92.5635 49.1133 -118.502 -92.6474 49.0982 -118.816 -92.6247 49.1163 
-119.107 -92.5878 49.1647 -119.392 -92.5369 49.2476 -118.293 -92.7871 49.1052 
-118.624 -93.1254 49.1084 -118.77 -93.379 49.1479 -119.055 -93.1417 49.14 
-119.33 -93.1238 49.1939 -119.041 -93.3923 49.1659 -118.088 -90.0161 49.9633 
-118.079 -90.1852 49.8439 -118.321 -89.9547 50.0348 -118.579 -90.1036 49.9792 
-118.126 -90.3971 49.747 -118.661 -90.2909 49.8772 -118.345 -90.4727 49.7183 
-118.57 -90.439 49.7711 -118.019 -91.4785 49.3664 -117.94 -91.7908 49.2877 
-118.303 -91.4101 49.3758 -118.652 -91.4362 49.3906 -119.025 -91.5716 49.4114 
-119.375 -91.7701 49.4554 -117.811 -92.131 49.2447 -117.782 -92.4736 49.2158 
-117.854 -92.7744 49.1954 -118.369 -93.0401 49.1144 -118.481 -93.3102 49.1481 
-119.656 -93.1268 49.2861 -119.555 -93.4221 49.268 -118.981 -93.6726 49.2238 
-119.332 -93.625 49.2504 -117.046 -89.9063 50.3598 -116.864 -89.7895 50.5848 
-116.785 -89.9658 50.4189 -117.339 -89.8309 50.3144 -117.166 -89.7166 50.5263 
-117.604 -89.7678 50.284 -117.451 -89.6633 50.473 -117.842 -89.7336 50.2579 
-117.714 -89.6324 50.426 -118.043 -89.7139 50.2496 -117.946 -89.6261 50.3827 
-118.105 -89.6399 50.3444 -118.234 -89.6477 50.3609 -116.907 -90.1531 50.2065 
-116.588 -90.1202 50.3742 -117.251 -90.0467 50.157 -117.545 -89.95 50.1356 
-117.761 -89.8637 50.146 -118.007 -89.8644 50.1083 -118.188 -89.7875 50.1799 
-118.395 -89.7605 50.2751 -116.286 -90.5106 50.2452 -116.099 -90.3833 50.4385 
-116.046 -90.5886 50.3371 -116.612 -90.3925 50.1659 -116.344 -90.2704 50.376 
-116.921 -90.4062 50.0289 -117.189 -90.3042 50.0019 -117.512 -90.1976 49.9765 
-117.828 -90.0566 49.9876 -118.912 -90.2472 50.0491 -118.688 -89.9653 50.1898 
-119.2 -90.1067 50.3264 -115.892 -90.814 50.3134 -116.482 -90.7072 50.047 
-116.804 -90.6453 49.9463 -117.453 -90.4968 49.8284 -118.931 -90.5899 49.8498 
-119.463 -90.2888 50.3081 -116.04 -91.0716 50.1028 -116.693 -90.9526 49.8554 
-117.032 -90.8829 49.7679 -119.394 -90.9411 49.8681 -119.752 -90.5415 50.2771 
-119.853 -90.8921 50.1118 -120.258 -90.7863 50.3942 -115.589 -91.4486 50.2215 
-116.231 -91.3476 49.9115 -116.941 -91.2197 49.6809 -117.298 -91.1371 49.6064 
-117.599 -91.0381 49.5762 -118.843 -91.1974 49.5413 -119.339 -91.3703 49.6347 
-120.362 -91.2844 50.1654 -120.519 -91.0258 50.3967 -115.753 -91.7156 50.0351 
-115.47 -91.7592 50.1885 -116.462 -91.654 49.7369 -117.231 -91.5079 49.5196 
-119.851 -91.8409 49.6558 -120.376 -91.7643 49.9449 -121.101 -91.5761 50.4341 
-121.35 -91.6763 50.5362 -115.62 -91.9575 50.0391 -115.405 -92.0516 50.149 
-115.903 -92.0697 49.8824 -116.741 -91.9859 49.5773 -117.536 -91.8232 49.3698 
-120.002 -92.337 49.5463 -120.874 -92.1826 50.0257 -121.374 -92.1688 50.2967 
-115.61 -92.2173 49.9915 -115.815 -92.3944 49.8664 -116.167 -92.4896 49.7223 
-117.073 -92.3329 49.4336 -117.467 -92.2241 49.326 -120.044 -92.7394 49.4672 
-120.43 -92.6706 49.6525 -120.86 -92.6196 49.8694 -121.828 -92.2915 50.5069 
-121.813 -92.6267 50.3549 -122.157 -92.751 50.4973 -122.061 -92.5339 50.5358 
-115.821 -93.0624 49.8271 -116.548 -92.8643 49.5729 -117.484 -92.6993 49.3018 
-120.024 -93.1098 49.4131 -120.419 -93.0725 49.5716 -121.273 -93.0098 49.9675 
-122.178 -93.0444 50.4188 -116.089 -93.3414 49.722 -116.908 -93.2464 49.4771 
-117.381 -93.1855 49.355 -117.865 -93.1316 49.233 -118.215 -93.1908 49.1623 
-119.95 -93.4671 49.3837 -120.792 -93.4292 49.6867 -121.218 -93.4048 49.8718 
-121.647 -93.3939 50.0736 -122.537 -93.1826 50.5803 -122.476 -93.4378 50.4898 
-122.733 -93.546 50.6194 -115.798 -93.7186 49.8651 -116.341 -93.7181 49.662 
-117.281 -93.6509 49.4268 -120.291 -93.8381 49.5071 -120.732 -93.8166 49.6512 
-121.987 -93.7635 50.1954 -116.066 -93.8868 49.7677 -116.412 -94.3337 49.7211 
-116.68 -94.1381 49.6215 -117.174 -94.1076 49.5143 -117.673 -94.0692 49.423 
-119.842 -94.2682 49.454 -120.224 -94.2288 49.5288 -121.095 -94.1738 49.7965 
-121.505 -94.1382 49.9578 -122.308 -94.1194 50.3441 -122.67 -94.0732 50.5481 
-122.975 -94.0032 50.7529 -116.497 -94.6366 49.7655 -117.065 -94.5636 49.6172 
-118.076 -94.4924 49.464 -119.15 -94.5053 49.4381 -119.679 -94.5741 49.4958 
-120.148 -94.6088 49.5771 -120.589 -94.5921 49.6789 -121.03 -94.5642 49.8112 
-121.803 -94.436 50.1011 -122.639 -94.4388 50.5319 -116.804 -94.7753 49.7162 
-117.235 -95.2068 49.7549 -117.477 -94.9727 49.6495 -118.472 -94.9141 49.5437 
-119.526 -94.9759 49.5804 -121.405 -94.9246 50.0005 -122.315 -94.9424 50.3949 
-122.935 -94.6659 50.722 -117.368 -95.5226 49.8533 -117.888 -95.3123 49.7035 
-118.849 -95.3261 49.6533 -119.36 -95.3662 49.6764 -119.931 -95.4571 49.7553 
-120.447 -95.3749 49.8188 -120.828 -95.2778 49.883 -121.297 -95.3765 50.0547 
-121.781 -95.2714 50.2104 -122.188 -95.2293 50.3782 -117.764 -95.6351 49.8403 
-118.234 -95.6727 49.8041 -118.719 -95.6921 49.781 -119.659 -95.763 49.8163 
-120.256 -96.1263 50.0099 -120.435 -95.828 49.9453 -120.929 -95.6866 50.0215 
-121.779 -95.7052 50.3141 -120.458 -96.4037 50.1649 -120.854 -96.079 50.1219 
-121.237 -96.0497 50.2221 -120.813 -96.3947 50.2413 -116.665 -89.6886 50.8669 
-116.551 -89.9137 50.6094 -117.011 -89.6134 50.7723 -117.315 -89.5637 50.699 
-117.599 -89.5367 50.6339 -117.867 -89.5357 50.5708 -118.129 -89.5704 50.4944 
-118.366 -89.6258 50.4559 -116.37 -90.0874 50.5186 -118.536 -89.6956 50.4168 
-115.992 -90.2963 50.5864 -115.815 -90.5041 50.5723 -116.156 -90.1873 50.5639 
-118.974 -89.8872 50.4605 -119.39 -90.0866 50.4772 -115.594 -90.8689 50.4985 
-119.616 -90.2238 50.4547 -115.433 -91.2003 50.4424 -120.064 -90.5067 50.5046 
-115.3 -91.5363 50.3971 -115.209 -91.8806 50.3472 -115.198 -92.1798 50.275 
-121.805 -91.943 50.6864 -115.569 -92.8207 49.9547 -122.199 -92.36 50.7459 
-122.624 -92.9339 50.738 -115.527 -93.5287 49.9965 -122.782 -93.2617 50.7309 
-123.039 -93.4875 50.899 -123.202 -93.8611 50.9528 -115.846 -94.0316 49.8896 
-116.123 -94.1868 49.7932 -116.201 -94.4895 49.836 -123.328 -94.2804 51.0064 
-123.253 -94.6734 50.9462 -116.599 -94.9423 49.8305 -116.914 -95.0816 49.7826 
-117.038 -95.3866 49.8704 -122.564 -95.2213 50.5691 -122.886 -95.203 50.7543 
-122.447 -95.5483 50.5784 -117.476 -95.9283 50.0301 -119.083 -96.0537 49.9163 
-119.901 -96.0886 49.9505 -120.122 -96.3678 50.096 -121.99 -96.0488 50.508 
-122.239 -95.8413 50.5575 -121.478 -96.3558 50.4253 -120.663 -96.7607 50.4038 
-121.195 -96.6059 50.4542 -116.035 -89.7845 51.2333 -115.9 -89.9542 51.0765 
-116.384 -89.8234 50.8456 -116.638 -89.5588 51.141 -116.896 -89.5176 51.0421 
-117.197 -89.4741 50.955 -117.493 -89.4489 50.8757 -118.056 -89.4721 50.73 
-118.71 -89.6122 50.6934 -118.562 -89.5516 50.7124 -115.93 -90.1501 50.8023 
-115.673 -90.102 51.1066 -116.246 -89.9975 50.7089 -118.702 -89.7284 50.471 
-118.955 -89.6863 50.8179 -115.3 -90.5079 51.0292 -115.154 -90.4339 51.2848 
-115.091 -90.6283 51.14 -115.587 -90.354 50.9037 -115.402 -90.267 51.1918 
-119.408 -89.9338 50.7475 -119.877 -90.1696 50.7309 -119.731 -90.059 50.7899 
-115.172 -90.7689 50.9338 -114.94 -90.8456 51.135 -115.451 -90.6528 50.763 
-119.803 -90.2913 50.5119 -120.134 -90.3028 50.7968 -115.017 -91.0642 50.8935 
-114.757 -91.1443 51.1403 -115.292 -90.9676 50.687 -120.744 -90.849 50.7101 
-120.465 -90.5793 50.7588 -120.933 -90.8752 50.8782 -114.855 -91.4071 50.8718 
-114.562 -91.5033 51.1533 -115.142 -91.3 50.6398 -120.889 -91.057 50.6381 
-121.234 -91.0523 51.0525 -114.7 -91.805 50.8543 -114.362 -91.919 51.1687 
-115.012 -91.6688 50.5982 -121.687 -91.5334 50.9928 -122.147 -91.9713 50.9922 
-114.544 -92.2466 50.8525 -114.184 -92.3719 51.1668 -114.925 -92.1229 50.5316 
-122.138 -92.0898 50.8759 -114.395 -92.6994 50.8694 -114.045 -92.8248 51.159 
-114.756 -92.593 50.5752 -115.121 -92.5236 50.2826 -115.382 -92.6145 50.0767 
-122.646 -92.5882 51.0266 -122.984 -93.0417 51.0521 -123.087 -92.9998 51.2244 
-114.273 -93.1446 50.8963 -113.93 -93.2604 51.1721 -114.63 -93.0406 50.6189 
-114.981 -92.9497 50.3518 -115.296 -92.8885 50.1239 -122.756 -93.0687 50.7834 
-114.17 -93.5769 50.9395 -113.835 -93.6795 51.203 -114.9 -93.3921 50.4046 
-115.24 -93.2789 50.1645 -123.355 -93.6677 51.1576 -113.762 -94.0751 51.2475 
-114.435 -93.9174 50.7463 -115.253 -93.7654 50.1971 -123.533 -94.0355 51.2109 
-113.997 -94.3649 51.0791 -114.339 -94.3306 50.845 -115.148 -94.2434 50.3367 
-115.596 -94.2224 50.0735 -123.625 -94.6637 51.2293 -123.817 -94.5529 51.3866 
-123.968 -94.6176 51.5376 -113.92 -94.6369 51.1607 -114.629 -94.7009 50.7274 
-115.047 -94.6751 50.4859 -115.956 -94.6737 50.0132 -123.512 -95.0713 51.176 
-123.853 -94.9653 51.4394 -124.056 -94.8346 51.6315 -113.981 -94.9062 51.1689 
-114.217 -95.0537 51.0475 -115.383 -95.0762 50.4254 -116.352 -95.1311 50.0073 
-122.833 -95.5183 50.7889 -123.228 -95.4098 51.0232 -123.863 -95.3141 51.4927 
-114.594 -95.4414 50.9498 -114.881 -95.4298 50.7956 -116.223 -95.5422 50.2343 
-116.824 -95.6291 50.0573 -122.721 -95.9247 50.8413 -123.504 -95.8236 51.3179 
-123.867 -95.6749 51.5635 -124.157 -95.5271 51.8007 -114.795 -95.7169 50.96 
-115.175 -95.777 50.7948 -115.603 -95.8333 50.6213 -116.063 -95.898 50.4566 
-116.556 -95.9921 50.3179 -117.071 -96.1634 50.2432 -117.549 -96.4249 50.2604 
-117.238 -96.5736 50.4121 -117.989 -96.3786 50.1619 -118.493 -96.3936 50.1106 
-118.991 -96.3983 50.0824 -119.467 -96.379 50.0679 -119.802 -96.3195 50.046 
-122.811 -96.3273 51.0315 -123.193 -96.1623 51.2069 -123.886 -96.055 51.6794 
[...]
POINT_DATA 2697
SCALARS ImageScalars unsigned_short
LOOKUP_TABLE default
1 1 1 1 1 1 1 1 1 
1 1 1 1 1 1 1 1 1 
1 1 1 1 1 1 1 1 1 
1 1 1 1 1 1 1 1 1 
1 1 1 1 1 1 1 1 1 
1 1 1 1 1 1 1 1 1 
1 1 1 1 1 1 1 1 1 
1 1 1 1 1 1 1 1 1 
1 1 1 1 1 1 1 1 1 
1 1 1 1 1 1 1 1 1 
1 1 1 1 1 1 1 1 1 
1 1 1 1 1 1 1 1 1 
1 1 1 1 1 1 1 1 1 
1 1 1 1 1 1 1 1 1 
1 1 1 1 1 1 1 1 1 
1 1 1 1 1 1 1 1 1 
1 1 1 1 1 1 1 1 1 
1 1 1 1 1 1 1 1 1 
1 1 1 1 1 1 1 1 1 
1 1 1 1 1 1 1 1 1 
1 1 1 1 1 1 1 1 1 
1 1 1 1 1 1 1 1 1 
1 1 1 1 1 1 1 1 1 
1 1 1 1 1 1 1 1 1 
1 1 1 1 1 1 1 1 1 
1 1 1 1 1 1 1 1 1 
1 1 1 1 1 1 1 1 1 
1 1 1 1 1 1 1 1 1 
1 1 1 1 1 1 1 1 1 
1 1 1 1 1 1 1 1 1 
1 1 1 1 1 1 1 1 1 
1 1 1 1 1 1 1 1 1 
1 1 1 1 1 1 1 1 1 
1 1 1 1 1 1 1 1 1 
1 1 1 1 1 1 1 1 1 
1 1 1 1 1 1 1 1 1 
1 1 1 1 1 1 1 1 1 
1 1 1 1 1 1 1 1 1 
1 1 1 1 1 1 1 1 1 
1 1 1 1 1 1 1 1 1 
1 1 1 1 1 1 1 1 1 
1 1 1 1 1 1 1 1 1 
1 1 1 1 1 1 1 1 1 
1 1 1 1 1 1 1 1 1 
1 1 1 1 1 1 1 1 1 
1 1 1 1 1 1 1 1 1 
1 1 1 1 1 1 1 1 1 
1 1 1 1 1 1 1 1 1 
1 1 1 1 1 1 1 1 1 
1 1 1 1 1 1 1 1 1 
1 1 1 1 1 1 1 1 1 
1 1 1 1 1 1 1 1 1 
1 1 1 1 1 1 1 1 1 
1 1 1 1 1 1 1 1 1 
1 1 1 1 1 1 1 1 1 
1 1 1 1 1 1 1 1 1 
1 1 1 1 1 1 1 1 1 
1 1 1 1 1 1 1 1 1 
1 1 1 1 1 1 1 1 1 
1 1 1 1 1 1 1 1 1 
1 1 1 1 1 1 1 1 1 
1 1 1 1 1 1 1 1 1 
1 1 1 1 1 1 1 1 1 
1 1 1 1 1 1 1 1 1 
1 1 1 1 1 1 1 1 1 
1 1 1 1 1 1 1 1 1 
1 1 1 1 1 1 1 1 1 
1 1 1 1 1 1 1 1 1 
1 1 1 1 1 1 1 1 1 
1 1 1 1 1 1 1 1 1 
1 1 1 1 1 1 1 1 1 
1 1 1 1 1 1 1 1 1 
1 1 1 1 1 1 1 1 1 
1 1 1 1 1 1 1 1 1 
1 1 1 1 1 1 1 1 1 
1 1 1 1 1 1 1 1 1 
1 1 1 1 1 1 1 1 1 
1 1 1 1 1 1 1 1 1 
1 1 1 1 1 1 1 1 1 
1 1 1 1 1 1 1 1 1 
1 1 1 1 1 1 1 1 1 
1 1 1 1 1 1 1 1 1 
1 1 1 1 1 1 1 1 1 
1 1 1 1 1 1 1 1 1 
1 1 1 1 1 1 1 1 1 
1 1 1 1 1 1 1 1 1 
1 1 1 1 1 1 1 1 1 
1 1 1 1 1 1 1 1 1 
1 1 1 1 1 1 1 1 1 
1 1 1 1 1 1 1 1 1 
1 1 1 1 1 1 1 1 1 
1 1 1 1 1 1 1 1 1 
1 1 1 1 1 1 1 1 1 
1 1 1 1 1 1 1 1 1 
1 1 1 1 1 1 1 1 1 
1 1 1 1 1 1 1 1 1 
1 1 1 1 1 1 1 1 1 
1 1 1 1 1 1 1 1 1 
1 1 1 1 1 1 1 1 1 
1 1 1 1 1 1 1 1 1 
1 1 1 1 1 1 1 1 1 
1 1 1 1 1 1 1 1 1 
1 1 1 1 1 1 1 1 1 
1 1 1 1 1 1 1 1 1 
1 1 1 1 1 1 1 1 1 
1 1 1 1 1 1 1 1 1 
1 1 1 1 1 1 1 1 1 
1 1 1 1 1 1 1 1 1 
1 1 1 1 1 1 1 1 1 
1 1 1 1 1 1 1 1 1 
1 1 1 1 1 1 1 1 1 
1 1 1 1 1 1 1 1 1 
1 1 1 1 1 1 1 1 1 
1 1 1 1 1 1 1 1 1 
1 1 1 1 1 1 1 1 1 
1 1 1 1 1 1 1 1 1 
1 1 1 1 1 1 1 1 1 
1 1 1 1 1 1 1 1 1 
1 1 1 1 1 1 1 1 1 
1 1 1 1 1 1 1 1 1 
1 1 1 1 1 1 1 1 1 
1 1 1 1 1 1 1 1 1 
1 1 1 1 1 1 1 1 1 
1 1 1 1 1 1 1 1 1 
1 1 1 1 1 1 1 1 1 
1 1 1 1 1 1 1 1 1 
1 1 1 1 1 1 1 1 1 
1 1 1 1 1 1 1 1 1 
1 1 1 1 1 1 1 1 1 
1 1 1 1 1 1 1 1 1 
1 1 1 1 1 1 1 1 1 
1 1 1 1 1 1 1 1 1 
1 1 1 1 1 1 1 1 1 
1 1 1 1 1 1 1 1 1 
1 1 1 1 1 1 1 1 1 
1 1 1 1 1 1 1 1 1 
1 1 1 1 1 1 1 1 1 
1 1 1 1 1 1 1 1 1 
1 1 1 1 1 1 1 1 1 
1 1 1 1 1 1 1 1 1 
1 1 1 1 1 1 1 1 1 
1 1 1 1 1 1 1 1 1 
1 1 1 1 1 1 1 1 1 
1 1 1 1 1 1 1 1 1 
1 1 1 1 1 1 1 1 1 
1 1 1 1 1 1 1 1 1 
1 1 1 1 1 1 1 1 1 
1 1 1 1 1 1 1 1 1 
1 1 1 1 1 1 1 1 1 
1 1 1 1 1 1 1 1 1 
1 1 1 1 1 1 1 1 1 
1 1 1 1 1 1 1 1 1 
1 1 1 1 1 1 1 1 1 
1 1 1 1 1 1 1 1 1 
1 1 1 1 1 1 1 1 1 
1 1 1 1 1 1 1 1 1 
1 1 1 1 1 1 1 1 1 
1 1 1 1 1 1 1 1 1 
1 1 1 1 1 1 1 1 1 
1 1 1 1 1 1 1 1 1 
1 1 1 1 1 1 1 1 1 
1 1 1 1 1 1 1 1 1 
1 1 1 1 1 1 1 1 1 
1 1 1 1 1 1 1 1 1 
1 1 1 1 1 1 1 1 1 
1 1 1 1 1 1 1 1 1 
1 1 1 1 1 1 1 1 1 
1 1 1 1 1 1 1 1 1 
1 1 1 1 1 1 1 1 1 
1 1 1 1 1 1 1 1 1 
1 1 1 1 1 1 1 1 1 
1 1 1 1 1 1 1 1 1 
1 1 1 1 1 1 1 1 1 
1 1 1 1 1 1 1 1 1 
1 1 1 1 1 1 1 1 1 
1 1 1 1 1 1 1 1 1 
1 1 1 1 1 1 1 1 1 
1 1 1 1 1 1 1 1 1 
1 1 1 1 1 1 1 1 1 
1 1 1 1 1 1 1 1 1 
1 1 1 1 1 1 1 1 1 
1 1 1 1 1 1 1 1 1 
1 1 1 1 1 1 1 1 1 
1 1 1 1 1 1 1 1 1 
1 1 1 1 1 1 1 1 1 
1 1 1 1 1 1 1 1 1 
1 1 1 1 1 1 1 1 1 
1 1 1 1 1 1 1 1 1 
1 1 1 1 1 1 1 1 1 
1 1 1 1 1 1 1 1 1 
1 1 1 1 1 1 1 1 1 
1 1 1 1 1 1 1 1 1 
1 1 1 1 1 1 1 1 1 
1 1 1 1 1 1 1 1 1 
1 1 1 1 1 1 1 1 1 
1 1 1 1 1 1 1 1 1 
1 1 1 1 1 1 1 1 1 
1 1 1 1 1 1 1 1 1 
1 1 1 1 1 1 1 1 1 
1 1 1 1 1 1 1 1 1 
1 1 1 1 1 1 1 1 1 
1 1 1 1 1 1 1 1 1 
1 1 1 1 1 1 1 1 1 
1 1 1 1 1 1 1 1 1 
1 1 1 1 1 1 1 1 1 
1 1 1 1 1 1 1 1 1 
1 1 1 1 1 1 1 1 1 
1 1 1 1 1 1 1 1 1 
1 1 1 1 1 1 1 1 1 
1 1 1 1 1 1 1 1 1 
1 1 1 1 1 1 1 1 1 
1 1 1 1 1 1 1 1 1 
1 1 1 1 1 1 1 1 1 
1 1 1 1 1 1 1 1 1 
1 1 1 1 1 1 1 1 1 
1 1 1 1 1 1 1 1 1 
1 1 1 1 1 1 1 1 1 
1 1 1 1 1 1 1 1 1 
1 1 1 1 1 1 1 1 1 
1 1 1 1 1 1 1 1 1 
1 1 1 1 1 1 1 1 1 
1 1 1 1 1 1 1 1 1 
1 1 1 1 1 1 1 1 1 
1 1 1 1 1 1 1 1 1 
1 1 1 1 1 1 1 1 1 
1 1 1 1 1 1 1 1 1 
1 1 1 1 1 1 1 1 1 
1 1 1 1 1 1 1 1 1 
1 1 1 1 1 1 1 1 1 
1 1 1 1 1 1 1 1 1 
1 1 1 1 1 1 1 1 1 
1 1 1 1 1 1 1 1 1 
1 1 1 1 1 1 1 1 1 
1 1 1 1 1 1 1 1 1 
1 1 1 1 1 1 1 1 1 
1 1 1 1 1 1 1 1 1 
1 1 1 1 1 1 1 1 1 
1 1 1 1 1 1 1 1 1 
1 1 1 1 1 1 1 1 1 
1 1 1 1 1 1 1 1 1 
1 1 1 1 1 1 1 1 1 
1 1 1 1 1 1 1 1 1 
1 1 1 1 1 1 1 1 1 
1 1 1 1 1 1 1 1 1 
1 1 1 1 1 1 1 1 1 
1 1 1 1 1 1 1 1 1 
1 1 1 1 1 1 1 1 1 
1 1 1 1 1 1 1 1 1 
1 1 1 1 1 1 1 1 1 
1 1 1 1 1 1 1 1 1 
1 1 1 1 1 1 1 1 1 
1 1 1 1 1 1 1 1 1 
1 1 1 1 1 1 1 1 1 
1 1 1 1 1 1 1 1 1 
1 1 1 1 1 1 1 1 1 
1 1 1 1 1 1 1 1 1 
1 1 1 1 1 1 1 1 1 
1 1 1 1 1 1 1 1 1 
1 1 1 1 1 1 1 1 1 
1 1 1 1 1 1 1 1 1 
1 1 1 1 1 1 1 1 1 
1 1 1 1 1 1 1 1 1 
1 1 1 1 1 1 1 1 1 
1 1 1 1 1 1 1 1 1 
1 1 1 1 1 1 1 1 1 
1 1 1 1 1 1 1 1 1 
1 1 1 1 1 1 1 1 1 
1 1 1 1 1 1 1 1 1 
1 1 1 1 1 1 1 1 1 
1 1 1 1 1 1 1 1 1 
1 1 1 1 1 1 1 1 1 
1 1 1 1 1 1 1 1 1 
1 1 1 1 1 1 1 1 1 
1 1 1 1 1 1 1 1 1 
1 1 1 1 1 1 1 1 1 
1 1 1 1 1 1 1 1 1 
1 1 1 1 1 1 1 1 1 
1 1 1 1 1 1 1 1 1 
1 1 1 1 1 1 1 1 1 
1 1 1 1 1 1 1 1 1 
1 1 1 1 1 1 1 1 1 
1 1 1 1 1 1 1 1 1 
1 1 1 1 1 1 1 1 1 
1 1 1 1 1 1 1 1 1 
1 1 1 1 1 1 1 1 1 
1 1 1 1 1 1 1 1 1 
1 1 1 1 1 1 1 1 1 
1 1 1 1 1 1 1 1 1 
1 1 1 1 1 1 1 1 1 
1 1 1 1 1 1 1 1 1 
1 1 1 1 1 1 1 1 1 
1 1 1 1 1 1 1 1 1 
1 1 1 1 1 1 1 1 1 
1 1 1 1 1 1 1 1 1 
1 1 1 1 1 1 1 1 1 
1 1 1 1 1 1 1 1 1 
1 1 1 1 1 1 1 1 1 
1 1 1 1 1 1 1 1 1 
1 1 1 1 1 1 1 1 1 
1 1 1 1 1 1 
METADATA
INFORMATION 0

NORMALS Normals float
-0.0112284 0.590709 -0.806807 0.0980115 0.704463 -0.702941 0.126631 0.463164 -0.877179 
-0.225451 0.690735 -0.687064 0.071245 0.316525 -0.945905 -0.169798 0.405386 -0.898238 
-0.411826 0.487308 -0.77002 -0.231291 0.318256 -0.919357 0.0664281 0.305272 -0.949945 
0.0681572 0.247383 -0.966518 -0.0621818 0.256315 -0.964591 -0.0400849 0.336569 -0.940805 
-0.177601 0.315417 -0.932186 -0.149726 0.377905 -0.913657 -0.288658 0.302875 -0.908264 
0.0327985 0.179017 -0.983299 0.154138 0.16414 -0.97432 -0.167243 0.168185 -0.971465 
0.1072 0.106138 -0.988556 -0.041029 0.126044 -0.991176 -0.340453 0.222667 -0.913516 
0.139505 0.0456057 -0.98917 0.00441973 0.0242107 -0.999697 -0.101456 0.0506583 -0.993549 
-0.212934 0.090604 -0.972857 -0.316804 0.125876 -0.940101 0.147701 -0.055609 -0.987468 
-0.0081021 -0.08289 -0.996526 -0.0138297 -0.182623 -0.983086 -0.125772 -0.0485295 -0.990871 
-0.225826 -0.0314186 -0.973661 -0.122921 -0.152941 -0.980561 0.107692 0.661102 -0.742528 
0.236459 0.467542 -0.851758 -0.14939 0.742046 -0.653491 -0.390525 0.662349 -0.639362 
0.163691 0.361813 -0.917767 -0.396617 0.465715 -0.791078 -0.0753823 0.186327 -0.979592 
-0.228838 0.300047 -0.92607 0.147725 0.298743 -0.942831 0.176874 0.243362 -0.953672 
-0.0165761 0.385117 -0.922719 -0.12863 0.424298 -0.89634 -0.262706 0.418184 -0.869544 
-0.383022 0.366139 -0.848078 0.219779 0.137886 -0.965756 0.239311 0.0638363 -0.968842 
0.239309 -0.0439492 -0.969948 0.0912833 -0.099575 -0.990834 0.11458 -0.236682 -0.964807 
-0.302123 0.0354465 -0.95261 -0.245884 -0.0944627 -0.964685 -0.0154846 -0.241715 -0.970224 
-0.160808 -0.176628 -0.971053 0.29455 0.677604 -0.673864 0.315876 0.760343 -0.56754 
0.328004 0.670624 -0.66534 0.261271 0.694736 -0.670134 0.273431 0.777051 -0.566946 
0.211807 0.723464 -0.657067 0.222382 0.801995 -0.554392 0.132609 0.745393 -0.653302 
0.153418 0.829923 -0.536368 0.00838547 0.754613 -0.656116 0.0743259 0.852721 -0.517052 
-0.0366593 0.847387 -0.529709 -0.156718 0.816748 -0.555304 0.307794 0.575173 -0.757918 
0.348543 0.612693 -0.709313 0.266728 0.58872 -0.763063 0.229961 0.606383 -0.761195 
0.165656 0.648693 -0.742802 0.0641309 0.668624 -0.74083 -0.101306 0.725266 -0.680975 
-0.261392 0.74004 -0.619689 0.409551 0.47112 -0.781226 0.47583 0.520933 -0.708671 
0.477132 0.433288 -0.764596 0.348649 0.501922 -0.791529 0.397461 0.557704 -0.728691 
0.285384 0.467327 -0.836756 0.256976 0.506534 -0.823035 0.21158 0.505866 -0.836262 
0.198064 0.537131 -0.819915 -0.399524 0.568779 -0.718938 -0.345686 0.692657 -0.63303 
-0.377534 0.674872 -0.634048 0.520011 0.408789 -0.749987 0.384875 0.391635 -0.835759 
0.316339 0.415248 -0.852936 0.212487 0.413681 -0.885278 -0.379304 0.434044 -0.81715 
-0.388753 0.562407 -0.729773 0.470528 0.353777 -0.80836 0.336204 0.32112 -0.885352 
0.261752 0.365919 -0.893078 -0.360251 0.438736 -0.823244 -0.411731 0.53608 -0.736951 
-0.390966 0.436989 -0.810054 -0.458503 0.533323 -0.710874 0.505975 0.30819 -0.80561 
0.402125 0.287935 -0.869131 0.294571 0.260407 -0.919465 0.218449 0.305667 -0.92674 
0.0688657 0.291936 -0.953955 -0.247275 0.41278 -0.876623 -0.360274 0.413301 -0.836293 
-0.427968 0.42094 -0.799783 -0.475124 0.496332 -0.726575 0.439604 0.246796 -0.86362 
0.539616 0.259833 -0.800812 0.352934 0.206358 -0.912608 0.259397 0.207372 -0.943244 
-0.413246 0.347275 -0.841801 -0.417908 0.359791 -0.834209 -0.502328 0.471302 -0.724942 
-0.509547 0.519201 -0.686143 0.470635 0.209863 -0.857006 0.554177 0.184071 -0.811791 
0.387543 0.173369 -0.905402 0.308848 0.141571 -0.940516 0.237414 0.211885 -0.948018 
-0.402002 0.246792 -0.881753 -0.433153 0.321674 -0.841965 -0.459949 0.36241 -0.810621 
0.470019 0.143928 -0.870843 0.413185 0.0945869 -0.905721 0.342397 0.095717 -0.934667 
0.286114 0.0554592 -0.956589 0.283619 0.106766 -0.952975 -0.365247 0.155571 -0.917819 
-0.41789 0.243221 -0.875335 -0.420313 0.230389 -0.877644 -0.512831 0.405122 -0.756889 
-0.449765 0.291963 -0.844079 -0.515089 0.333962 -0.789401 -0.517063 0.381095 -0.766428 
0.425867 -0.000488195 -0.904786 0.307891 0.0308012 -0.950923 0.287058 -0.0203247 -0.957697 
-0.345238 0.061396 -0.936505 -0.36717 0.0766488 -0.926991 -0.426634 0.22384 -0.876287 
-0.46436 0.227795 -0.85585 0.331041 -0.0313352 -0.943096 0.251812 -0.060792 -0.965865 
0.23755 -0.0764118 -0.968365 0.231327 -0.163073 -0.959112 0.203041 -0.208322 -0.956753 
-0.285465 -0.0665979 -0.956072 -0.392401 0.108424 -0.913381 -0.39803 0.0890837 -0.913037 
-0.433099 0.146482 -0.889364 -0.519055 0.244536 -0.819014 -0.472622 0.123277 -0.8726 
-0.573469 0.138591 -0.807419 0.438227 -0.0926147 -0.894081 0.297238 -0.0840678 -0.951095 
0.201588 -0.122724 -0.971752 -0.307476 -0.0388806 -0.950761 -0.319048 -0.0402502 -0.946884 
-0.441789 0.0764571 -0.893855 0.362077 -0.109605 -0.925682 0.292157 -0.184581 -0.938389 
0.234667 -0.142133 -0.961629 0.184951 -0.157807 -0.969995 0.161304 -0.173852 -0.971471 
-0.186193 -0.161938 -0.969076 -0.249774 -0.122709 -0.960498 -0.364527 -0.0286006 -0.930753 
-0.399774 0.0182078 -0.916433 -0.467067 0.00661636 -0.884197 -0.515214 0.0285564 -0.856586 
-0.588667 0.0494779 -0.80686 0.302126 -0.256209 -0.918192 0.182605 -0.206363 -0.961286 
0.085204 -0.238502 -0.967397 -0.0487846 -0.242349 -0.968962 -0.116485 -0.225808 -0.967183 
-0.178883 -0.212951 -0.960548 -0.259654 -0.157312 -0.952803 -0.318532 -0.122147 -0.940009 
-0.401106 -0.0773106 -0.912763 -0.494679 -0.0363784 -0.868314 0.232103 -0.253191 -0.93916 
0.170664 -0.323707 -0.930638 0.134729 -0.253249 -0.957973 0.039912 -0.269213 -0.962253 
-0.0838725 -0.252401 -0.963981 -0.339673 -0.158426 -0.927105 -0.459629 -0.0916852 -0.883366 
-0.540571 -0.0451722 -0.840085 0.169006 -0.384996 -0.907312 0.0985759 -0.309101 -0.945906 
0.00334807 -0.294064 -0.95578 -0.0443773 -0.292056 -0.955371 -0.127053 -0.269919 -0.954464 
-0.200865 -0.243736 -0.948813 -0.270902 -0.209502 -0.939532 -0.314657 -0.225037 -0.922144 
-0.370477 -0.177418 -0.91174 -0.412825 -0.179419 -0.892964 0.121227 -0.399345 -0.908751 
0.0832031 -0.374779 -0.923373 0.0465083 -0.376695 -0.925169 -0.042946 -0.342191 -0.938649 
-0.155046 -0.353447 -0.922516 -0.184272 -0.297873 -0.936651 -0.253337 -0.266243 -0.930019 
-0.360323 -0.256393 -0.8969 -0.173654 -0.417724 -0.891825 -0.227351 -0.330823 -0.915897 
-0.288849 -0.323148 -0.901189 -0.231809 -0.412904 -0.880781 0.327494 0.815657 -0.476919 
0.356688 0.726688 -0.58711 0.277081 0.839346 -0.46768 0.218088 0.862858 -0.455975 
0.121003 0.903842 -0.4104 0.058937 0.909709 -0.411042 -0.0744304 0.912897 -0.401347 
-0.203193 0.858515 -0.470813 0.391972 0.653268 -0.647765 -0.279214 0.80156 -0.528717 
0.533488 0.569775 -0.625097 0.550702 0.507789 -0.662479 0.461743 0.619619 -0.634717 
-0.399413 0.765457 -0.504525 -0.393267 0.730448 -0.558378 0.548194 0.417111 -0.724915 
-0.396155 0.721788 -0.567524 0.562748 0.36411 -0.742118 -0.482723 0.61934 -0.61919 
0.597671 0.299917 -0.743531 0.619002 0.236122 -0.749054 0.616093 0.156967 -0.771875 
-0.543396 0.499144 -0.674963 0.482542 0.0207381 -0.875627 -0.594367 0.447567 -0.668141 
-0.572591 0.360889 -0.736137 0.504761 -0.0598909 -0.861179 -0.627931 0.260286 -0.733454 
-0.69832 0.250041 -0.670693 -0.649857 0.147136 -0.745678 0.442452 -0.171673 -0.880207 
0.366702 -0.183539 -0.912054 0.373383 -0.254886 -0.891975 -0.617392 0.0533649 -0.784844 
-0.586379 -0.0487417 -0.808569 0.310577 -0.325393 -0.893119 0.243183 -0.323094 -0.914589 
0.243228 -0.389316 -0.88841 -0.479905 -0.149867 -0.864425 -0.542413 -0.128037 -0.830298 
-0.454408 -0.222732 -0.862498 0.173135 -0.433322 -0.884453 0.00242136 -0.373369 -0.92768 
-0.09686 -0.344116 -0.933918 -0.10458 -0.43597 -0.893864 -0.373079 -0.327706 -0.867998 
-0.422481 -0.270808 -0.86497 -0.317334 -0.362794 -0.876173 -0.177819 -0.480803 -0.858608 
-0.257195 -0.432755 -0.864045 0.424135 0.810052 -0.404876 0.478827 0.728409 -0.490046 
0.385776 0.793243 -0.471107 0.328874 0.872141 -0.362231 0.242058 0.903717 -0.353134 
0.210901 0.907169 -0.364094 0.133035 0.925267 -0.355222 -0.0346983 0.949149 -0.31291 
-0.386079 0.846377 -0.366864 -0.232393 0.906127 -0.35345 0.525877 0.634253 -0.566725 
0.539414 0.676544 -0.501319 0.439007 0.702817 -0.559752 -0.351778 0.766848 -0.53684 
-0.405243 0.859419 -0.311733 0.594225 0.565925 -0.571511 0.636645 0.612429 -0.468629 
0.6537 0.531464 -0.538723 0.552212 0.591541 -0.587487 0.581949 0.645741 -0.494322 
-0.390898 0.827802 -0.402422 -0.46351 0.748788 -0.473789 -0.402672 0.810543 -0.425294 
0.62853 0.47126 -0.618759 0.694584 0.459102 -0.553875 0.572915 0.500465 -0.649079 
-0.451353 0.621727 -0.640106 -0.495517 0.706789 -0.504887 0.666139 0.396247 -0.63186 
0.715912 0.400213 -0.572101 0.604353 0.415959 -0.679512 -0.527107 0.610904 -0.590724 
-0.515238 0.653522 -0.554471 -0.602905 0.635372 -0.482502 0.687797 0.332619 -0.645213 
0.721372 0.34888 -0.598251 0.636107 0.343798 -0.690776 -0.577633 0.542198 -0.610214 
-0.622358 0.621951 -0.475233 0.690499 0.273326 -0.669705 0.710716 0.303027 -0.634868 
0.658636 0.274489 -0.70061 -0.571153 0.62973 -0.526521 -0.626427 0.596515 -0.501755 
0.677686 0.220005 -0.701669 0.690621 0.251439 -0.678101 0.660609 0.195426 -0.724848 
-0.609654 0.472471 -0.636469 0.658036 0.162707 -0.735198 0.67153 0.185804 -0.717304 
0.642801 0.134702 -0.754097 0.621625 0.101221 -0.776748 0.54075 0.0882553 -0.836541 
-0.668253 0.478188 -0.569889 -0.712365 0.388591 -0.584409 -0.732104 0.39986 -0.551485 
0.626248 0.0933252 -0.774018 0.656565 0.12079 -0.744535 0.622145 0.0656361 -0.780146 
0.603756 0.0454407 -0.795873 0.555426 0.00726358 -0.831535 -0.65639 0.369238 -0.657887 
0.608198 0.0390464 -0.792824 0.634819 0.0541338 -0.770762 0.571638 -0.0473205 -0.81914 
0.546785 -0.0248178 -0.836905 -0.697065 0.281679 -0.659361 0.631015 -0.00855116 -0.775724 
0.561224 -0.0274615 -0.827208 0.534516 -0.112508 -0.837636 -0.668692 0.183121 -0.720637 
0.575443 -0.0544712 -0.816026 0.528845 -0.112032 -0.841292 0.502527 -0.160284 -0.849574 
0.476783 -0.199751 -0.856024 -0.634379 -0.0203169 -0.772755 -0.731404 0.10337 -0.674065 
-0.725172 0.0442061 -0.687147 0.598932 -0.105859 -0.793772 0.492755 -0.167633 -0.853868 
0.455759 -0.222053 -0.861961 0.408006 -0.298081 -0.862948 -0.600589 -0.0998716 -0.793296 
-0.666937 -0.0593453 -0.742747 -0.737921 -0.0126614 -0.674769 0.579871 -0.193938 -0.791289 
0.516957 -0.202265 -0.831772 0.424922 -0.277009 -0.861805 0.350638 -0.356913 -0.865833 
-0.508786 -0.210107 -0.834861 -0.560268 -0.186437 -0.807057 -0.644879 -0.121856 -0.754508 
0.474612 -0.312842 -0.822723 0.438884 -0.29478 -0.848815 0.348019 -0.370053 -0.861361 
0.278337 -0.409398 -0.868863 -0.480118 -0.27108 -0.834267 -0.580251 -0.208892 -0.787193 
-0.637694 -0.165131 -0.752381 -0.698083 -0.113203 -0.707011 0.443433 -0.393772 -0.805178 
0.406158 -0.387026 -0.827796 0.370431 -0.383626 -0.845939 0.342708 -0.416239 -0.842197 
0.29309 -0.422609 -0.857613 0.241904 -0.437956 -0.865839 0.179501 -0.461534 -0.868773 
0.233484 -0.491645 -0.83891 0.116551 -0.4493 -0.885746 0.0766896 -0.448703 -0.890384 
0.0365234 -0.446199 -0.894188 -0.0165113 -0.44083 -0.897439 -0.0362659 -0.429926 -0.902136 
-0.455941 -0.338784 -0.823009 -0.52151 -0.275283 -0.807618 -0.620075 -0.225742 -0.751364 
-0.680187 -0.175339 -0.71176 0.207445 -0.532061 -0.820901 0.13637 -0.492304 -0.859674 
0.0454122 -0.506847 -0.860839 -0.00888404 -0.493809 -0.869525 -0.0813639 -0.491882 -0.866852 
-0.321364 -0.421677 -0.847888 -0.404962 -0.356162 -0.842113 -0.554132 -0.310803 -0.77223 
0.151077 -0.545164 -0.824604 0.0988695 -0.532672 -0.840527 -0.0352323 -0.523776 -0.851127 
-0.171141 -0.501194 -0.848242 -0.249055 -0.470791 -0.846361 -0.372392 -0.421088 -0.827048 
-0.426958 -0.406937 -0.807533 -0.492068 -0.37147 -0.787324 -0.197886 -0.549895 -0.811453 
-0.289825 -0.486933 -0.823952 -0.34208 -0.480607 -0.807464 -0.395957 -0.473246 -0.786929 
-0.263514 -0.554699 -0.78922 -0.307051 -0.566089 -0.765025 -0.372114 -0.534236 -0.759027 
0.441296 0.837073 -0.323366 0.502931 0.762639 -0.406745 0.368182 0.868533 -0.331801 
0.248368 0.932384 -0.262628 0.141016 0.957596 -0.251244 0.0426561 0.957559 -0.285063 
-0.135481 0.953228 -0.270188 -0.335879 0.917638 -0.21243 0.562963 0.718926 -0.407699 
0.674447 0.633807 -0.378695 0.698501 0.548054 -0.460145 0.617868 0.681681 -0.391856 
-0.407226 0.857558 -0.314262 -0.441577 0.836658 -0.324057 0.731056 0.482705 -0.482237 
-0.491594 0.771186 -0.404484 0.742992 0.431438 -0.511688 -0.577282 0.692211 -0.433116 
-0.612837 0.711839 -0.343097 0.738384 0.391957 -0.548779 0.710814 0.355177 -0.607118 
-0.636165 0.653118 -0.410769 0.695327 0.268436 -0.666681 -0.66746 0.526356 -0.526732 
0.691014 0.195415 -0.695926 -0.728316 0.499199 -0.46942 0.683523 0.131551 -0.717977 
-0.733168 0.376956 -0.566011 0.674785 0.0645525 -0.735185 -0.720708 0.297622 -0.6261 
0.665792 -0.0192625 -0.745889 0.668561 -0.102052 -0.736622 -0.683924 0.16635 -0.710335 
-0.794826 0.169467 -0.582694 0.644657 -0.206261 -0.736121 -0.784357 0.133664 -0.605737 
0.577385 -0.278311 -0.767574 0.553136 -0.343814 -0.758836 -0.738023 -0.0421147 -0.67346 
0.492537 -0.421751 -0.76127 -0.720171 -0.180055 -0.670025 0.387308 -0.460566 -0.798668 
0.319608 -0.45213 -0.832724 -0.593066 -0.302466 -0.746182 -0.652846 -0.26115 -0.711051 
-0.696424 -0.215685 -0.684452 -0.587829 -0.389299 -0.709157 0.176296 -0.583791 -0.792533 
0.0630539 -0.571702 -0.818035 0.0216219 -0.557334 -0.830007 -0.0862859 -0.539409 -0.837611 
-0.105649 -0.574423 -0.811712 -0.441909 -0.461059 -0.769507 -0.506095 -0.431158 -0.746974 
-0.557345 -0.392108 -0.73186 -0.12232 -0.632773 -0.764615 -0.417436 -0.538894 -0.731669 
-0.169172 -0.638024 -0.751203 -0.242756 -0.604193 -0.75896 0.458897 0.852598 -0.249981 
0.520627 0.78987 -0.324118 0.372095 0.897322 -0.237398 0.308991 0.923133 -0.2288 
0.176221 0.963728 -0.200434 0.0397309 0.987453 -0.152836 -0.0498969 0.980669 -0.189205 
-0.111446 0.973328 -0.200531 -0.228691 0.952984 -0.198801 0.588312 0.745977 -0.312101 
-0.335287 0.927972 -0.162635 0.690055 0.659179 -0.298843 0.720227 0.57462 -0.388697 
0.644404 0.704511 -0.297334 -0.372703 0.902653 -0.215199 -0.407141 0.885677 -0.223185 
-0.563096 0.779076 -0.275615 -0.481567 0.828767 -0.285023 0.745526 0.520699 -0.416009 