# vtk DataFile Version 4.2
3D Slicer output. SPACE=RAS
ASCII
DATASET POLYDATA
POINTS 6942 float
-83.7731 -81.246 71.6182 -83.5177 -80.9802 71.709 -83.5409 -81.2589 71.6759 
-84.048 -81.2376 71.5768 -83.7935 -80.9445 71.6566 -84.3335 -81.2354 71.5568 
-84.0887 -80.937 71.6263 -84.6116 -81.2382 71.5574 -84.3898 -80.9492 71.6184 
-84.8533 -81.2402 71.5726 -84.6836 -80.9837 71.6287 -85.0083 -81.2134 71.5983 
-84.891 -81.0512 71.6293 -85.0268 -81.063 71.6543 -83.7361 -81.5181 71.6141 
-83.4566 -81.4737 71.7048 -84.0103 -81.5294 71.5581 -84.2923 -81.5268 71.5261 
-84.5705 -81.517 71.5175 -84.834 -81.4981 71.5315 -85.083 -81.451 71.5712 
-85.1787 -81.2572 71.6312 -83.6816 -81.7748 71.6384 -83.4295 -81.7506 71.7298 
-83.9631 -81.8152 71.5706 -84.2543 -81.8222 71.525 -84.5384 -81.8095 71.5048 
-84.8103 -81.7846 71.5105 -85.0684 -81.7487 71.5419 -85.3071 -81.4769 71.6199 
-85.3179 -81.7133 71.5974 -85.5001 -81.7539 71.656 -85.4346 -81.6162 71.6419 
-85.5585 -81.656 71.703 -83.6249 -81.9717 71.6756 -83.4502 -82.0101 71.7605 
-83.8899 -82.1061 71.6168 -84.2132 -82.1266 71.5538 -84.5108 -82.1121 71.5195 
-84.7902 -82.0811 71.5137 -85.0539 -82.0405 71.5362 -85.3008 -81.993 71.5863 
-85.5145 -81.9405 71.6589 -85.6606 -81.8339 71.7451 -83.683 -82.2038 71.6998 
-83.8993 -82.3738 71.6617 -84.0061 -82.618 71.6973 -84.1742 -82.4567 71.613 
-84.4908 -82.4296 71.5614 -84.7773 -82.3866 71.5416 -85.0453 -82.3372 71.5526 
-85.2992 -82.2828 71.595 -85.5377 -82.2175 71.67 -85.7531 -82.1173 71.7792 
-84.2344 -82.7452 71.6665 -84.129 -82.8895 71.756 -84.4916 -82.7725 71.6295 
-84.7784 -82.7024 71.5945 -85.0442 -82.6372 71.5912 -85.2984 -82.5763 71.6208 
-85.5465 -82.5143 71.6864 -85.7962 -82.4397 71.795 -84.3754 -82.9692 71.7055 
-84.5833 -83.0446 71.6893 -84.7249 -83.2351 71.7455 -84.806 -83.0304 71.673 
-85.0568 -82.9347 71.6537 -85.3013 -82.8629 71.6671 -85.5423 -82.8015 71.7149 
-85.7892 -82.7472 71.8039 -84.9154 -83.2799 71.7555 -84.8627 -83.4401 71.8377 
-85.0882 -83.2118 71.7393 -85.3159 -83.1372 71.74 -85.5389 -83.0653 71.7644 
-85.7645 -83.0183 71.8288 -85.0918 -83.457 71.85 -85.337 -83.4022 71.8463 
-85.5629 -83.3176 71.8515 -85.7324 -83.2265 71.8657 -83.2642 -80.7165 71.8164 
-83.2304 -81.07 71.8005 -83.515 -80.6415 71.7658 -83.8253 -80.6212 71.7239 
-84.1446 -80.6314 71.706 -84.4746 -80.6672 71.715 -84.8752 -80.7533 71.7589 
-85.1718 -81.0368 71.7197 -83.1345 -81.4595 71.8499 -85.3006 -81.2102 71.6894 
-83.2432 -81.8008 71.8299 -85.3378 -81.3432 71.658 -85.4758 -81.4728 71.6994 
-85.7064 -81.5944 71.8382 -83.2405 -82.0424 71.8922 -85.9121 -81.9288 71.9142 
-83.4945 -82.2748 71.815 -83.7505 -82.468 71.7498 -83.8571 -82.7521 71.8175 
-86.0774 -82.3277 71.9708 -84.0088 -83.0827 71.9177 -86.0539 -82.6945 71.9388 
-84.2984 -83.1439 71.8121 -84.5192 -83.1926 71.7613 -84.6611 -83.3936 71.8378 
-86.0128 -82.9913 71.9394 -84.7818 -83.5369 71.9074 -85.9541 -83.2514 71.9648 
-84.9985 -83.7064 72.0112 -85.3423 -83.6699 71.991 -85.6112 -83.5885 71.9878 
-85.8278 -83.4555 71.986 -82.7718 -78.4974 72.587 -82.6122 -78.2364 72.7468 
-82.5258 -78.4363 72.6556 -82.9459 -78.4674 72.5858 -82.8172 -78.3203 72.6721 
-82.9564 -78.3138 72.6752 -82.6913 -78.7962 72.4728 -82.3338 -78.5686 72.6373 
-83.0527 -78.7511 72.4571 -83.1413 -78.4744 72.594 -82.0718 -79.0058 72.545 
-81.854 -78.7583 72.7136 -81.8587 -79.0074 72.6329 -82.3985 -79.0079 72.4521 
-82.0954 -78.6961 72.6455 -82.7414 -79.1824 72.3138 -83.0335 -79.1531 72.2879 
-83.372 -78.741 72.4763 -83.4264 -79.1531 72.277 -83.8254 -79.3342 72.2103 
-83.6863 -78.9745 72.3945 -84.1163 -79.4443 72.1874 -83.9945 -79.1727 72.3304 
-84.2958 -79.4706 72.2088 -84.1939 -79.3117 72.2816 -84.3341 -79.3546 72.2985 
-81.9928 -79.2096 72.5159 -81.7906 -79.2194 72.6238 -82.2556 -79.3714 72.3801 
-82.6239 -79.4552 72.2527 -82.9737 -79.5128 72.1633 -83.3283 -79.5396 72.1149 
-83.6946 -79.5989 72.08 -84.0365 -79.678 72.0638 -84.3499 -79.7138 72.0997 
-82.0091 -79.4552 72.4565 -82.2108 -79.6673 72.3264 -82.2697 -79.9622 72.2601 
-82.5099 -79.8135 72.1963 -82.8832 -79.8565 72.0829 -83.2463 -79.9028 72.0012 
-83.6048 -79.9297 71.9536 -83.9509 -79.9718 71.9331 -84.2818 -80.0174 71.9451 
-84.6321 -79.7964 72.1491 -84.6009 -80.0629 71.9927 -84.8324 -80.197 72.0015 
-84.7826 -80.001 72.094 -82.5512 -80.2338 72.117 -82.29 -80.2925 72.2286 
-82.7997 -80.1579 72.0411 -83.1623 -80.3052 71.9175 -83.5372 -80.2813 71.8503 
-83.8784 -80.2923 71.8173 -84.2116 -80.3231 71.8136 -84.5384 -80.3634 71.8421 
-84.7805 -80.3616 71.9026 -85.0476 -80.4357 71.98 -82.5528 -80.596 72.0959 
-82.2876 -80.6029 72.2348 -82.9069 -80.5844 71.9547 -85.3885 -81.1163 71.7878 
-85.2473 -80.8179 71.874 -85.5555 -81.1486 71.8892 -82.4947 -80.85 72.1311 
-82.2937 -80.8949 72.2642 -82.8092 -81.011 71.9843 -85.4138 -81.2935 71.7159 
-85.5522 -81.3201 71.8099 -85.7546 -81.2887 72.0053 -82.5502 -81.1419 72.1387 
-82.8184 -81.3691 72.0085 -82.9747 -81.7302 71.9825 -86.0071 -81.6498 72.0797 
-83.0137 -82.0804 72.0633 -86.245 -82.0363 72.1484 -83.2831 -82.3416 71.9791 
-83.5733 -82.5642 71.8876 -83.6846 -82.8663 71.9757 -86.4025 -82.3827 72.1896 
-86.3503 -82.6732 72.1197 -86.5595 -82.77 72.255 -86.5396 -82.5959 72.2572 
-86.6708 -82.7018 72.3542 -83.7826 -83.1343 72.08 -86.2745 -82.9651 72.0819 
-86.5131 -82.9514 72.2319 -86.6988 -82.9085 72.3732 -84.2889 -83.3604 71.9539 
-84.0307 -83.4006 72.1196 -84.4739 -83.3404 71.8589 -86.2195 -83.2449 72.097 
-86.4725 -83.2094 72.2413 -86.6942 -83.1566 72.3953 -84.3227 -83.5786 72.097 
-84.1998 -83.7051 72.2643 -84.6038 -83.5858 71.9964 -86.1476 -83.5426 72.1512 
-86.4314 -83.4807 72.281 -86.6748 -83.4292 72.4365 -84.4944 -83.814 72.2154 
-84.8103 -83.9124 72.1945 -85.126 -84.0504 72.2449 -84.9673 -84.192 72.3861 
-85.3633 -83.9539 72.1731 -85.6427 -83.8774 72.1572 -85.9411 -83.7749 72.1748 
-86.2222 -83.8146 72.2915 -86.4114 -83.7393 72.3536 -86.6371 -83.6877 72.482 
-85.2076 -84.2759 72.4134 -85.1363 -84.4294 72.5699 -85.404 -84.2243 72.3681 
-85.6572 -84.1584 72.3446 -85.9279 -84.0832 72.3503 -86.1872 -84.0218 72.3909 
-86.4052 -83.9655 72.4509 -86.5998 -83.911 72.5406 -85.3997 -84.4506 72.5609 
-85.6615 -84.4179 72.5478 -85.9314 -84.3551 72.5475 -86.1912 -84.274 72.5641 
-86.4152 -84.1813 72.5904 -86.5717 -84.0884 72.614 -82.5289 -77.9796 72.92 
-82.234 -78.1025 72.8909 -82.8105 -78.1083 72.8218 -83.0763 -78.2201 72.7574 
-82.0773 -78.3942 72.7759 -83.2486 -78.3489 72.6847 -81.6569 -78.5406 72.8842 
-81.6067 -78.8568 72.8245 -81.8606 -78.4612 72.8185 -83.3479 -78.5076 72.5995 
-83.5841 -78.607 72.6041 -83.9181 -78.859 72.5368 -84.2261 -79.1308 72.4401 
-81.5037 -79.2677 72.8178 -84.6074 -79.4937 72.3248 -81.8014 -79.5327 72.565 
-82.03 -79.7417 72.3993 -82.0512 -80.03 72.3667 -84.8973 -79.8267 72.2872 
-85.1387 -80.1959 72.1883 -82.0524 -80.332 72.371 -85.2575 -80.4295 72.1021 
-82.0681 -80.6509 72.3917 -85.2902 -80.6068 72.0116 -85.4819 -80.7942 72.0411 
-85.7691 -80.9471 72.2171 -82.1193 -80.8949 72.3943 -82.2682 -81.2243 72.3673 
-82.6404 -81.4952 72.1506 -82.7551 -81.8486 72.172 -86.34 -81.7188 72.3565 
-82.838 -82.0947 72.2027 -83.0096 -82.4081 72.2263 -83.3831 -82.6609 72.0663 
-83.5147 -82.9788 72.1615 -86.484 -82.2099 72.2864 -86.6897 -82.4351 72.4279 
-86.84 -82.7813 72.5178 -83.6833 -83.3203 72.2884 -86.8838 -83.0659 72.5573 
-83.9387 -83.5873 72.3243 -86.8919 -83.3484 72.6044 -84.0569 -83.8395 72.4778 
-86.8923 -83.6621 72.6885 -84.3622 -83.9773 72.4262 -84.6706 -84.0902 72.3898 
-84.8497 -84.3556 72.5791 -86.7843 -83.8713 72.6658 -85.0452 -84.6071 72.7815 
-86.7625 -84.0785 72.7514 -85.3436 -84.6557 72.7711 -85.637 -84.6599 72.7686 
-85.9277 -84.6186 72.7714 -86.207 -84.5385 72.7822 -86.4587 -84.4248 72.7984 
-86.6542 -84.2749 72.7986 -81.7157 -77.393 73.408 -81.5422 -77.1849 73.6059 
-81.5196 -77.409 73.4622 -81.871 -77.3427 73.4079 -81.7282 -77.1935 73.5458 
-81.8732 -77.1708 73.5439 -81.6875 -77.6368 73.2729 -81.4268 -77.627 73.384 
-81.9684 -77.6232 73.2151 -82.0869 -77.3604 73.3782 -81.6402 -77.9148 73.1485 
-81.3686 -77.9688 73.2564 -81.8785 -77.8832 73.0835 -82.3293 -77.6794 73.1389 
-82.6712 -77.7947 73.0559 -83.0253 -77.9257 73.0005 -83.4373 -78.1091 72.9403 
-83.2844 -77.9611 73.0286 -81.6239 -78.2382 73.0152 -81.3621 -78.4054 73.1051 
-81.8817 -78.1615 72.9443 -83.3985 -78.3871 72.6937 -83.647 -78.1592 72.9948 
-81.2553 -78.8179 73.073 -83.8386 -78.4905 72.803 -84.1784 -78.8002 72.7143 
-84.4896 -79.1068 72.6125 -84.8216 -79.4055 72.5647 -84.7088 -79.2524 72.6203 
-81.1711 -79.1546 73.0871 -84.738 -79.5772 72.3446 -85.0377 -79.558 72.643 
-81.6388 -79.7109 72.6702 -81.2983 -79.5956 72.96 -81.8649 -79.811 72.4925 
-85.5876 -80.4308 72.3866 -85.499 -80.2462 72.4523 -81.5674 -80.0202 72.7344 
-81.2952 -80.0239 72.9826 -81.8272 -80.0453 72.5201 -85.403 -80.5592 72.1212 
-81.5584 -80.3772 72.7852 -81.3002 -80.3814 73.0373 -81.8181 -80.3719 72.5557 
-86.0809 -80.972 72.5367 -81.536 -80.6589 72.8663 -81.346 -80.7344 73.089 
-81.8651 -80.8069 72.6009 -86.378 -81.3507 72.6051 -81.6367 -80.9928 72.8727 
-81.9551 -81.2796 72.6645 -82.2591 -81.6245 72.5113 -82.0096 -81.6502 72.7633 
-82.498 -81.6466 72.3079 -86.5896 -81.6827 72.6329 -86.7711 -82.0568 72.6259 
-86.7366 -81.8794 72.6829 -82.2622 -81.9042 72.6352 -82.0869 -81.9843 72.8651 
-82.5876 -82.0304 72.3979 -86.5976 -82.1628 72.3997 -82.3895 -82.2197 72.6935 
-82.7207 -82.4761 72.5278 -83.0283 -82.7709 72.4269 -82.8199 -82.8271 72.6727 
-83.2484 -82.7839 72.2422 -87.0653 -82.9401 72.7474 -86.9976 -82.614 72.7165 
-87.2211 -82.939 72.9266 -87.1575 -82.7913 72.8637 -87.2694 -82.8239 73.0119 
-83.0703 -83.0258 72.5713 -82.9612 -83.1484 72.7965 -83.3204 -83.0817 72.3901 
-87.0787 -83.2347 72.7759 -87.2363 -83.1269 72.9529 -87.345 -82.9933 73.1112 
-83.2372 -83.2803 72.6266 -83.4794 -83.3815 72.4955 -83.7307 -83.6445 72.5322 
-87.0948 -83.5129 72.8436 -87.2644 -83.387 73.0176 -87.4056 -83.2421 73.204 
-83.903 -83.9624 72.7195 -87.1209 -83.7595 72.9438 -87.2857 -83.6557 73.1003 
-87.4479 -83.5219 73.2946 -84.215 -84.1263 72.6716 -84.5409 -84.2537 72.6114 
[...]
POINT_DATA 6942
SCALARS ImageScalars unsigned_short
LOOKUP_TABLE default
4 4 4 4 4 4 4 4 4 
4 4 4 4 4 4 4 4 4 
4 4 4 4 4 4 4 4 4 
4 4 4 4 4 4 4 4 4 
4 4 4 4 4 4 4 4 4 
4 4 4 4 4 4 4 4 4 
4 4 4 4 4 4 4 4 4 
4 4 4 4 4 4 4 4 4 
4 4 4 4 4 4 4 4 4 
4 4 4 4 4 4 4 4 4 
4 4 4 4 4 4 4 4 4 
4 4 4 4 4 4 4 4 4 
4 4 4 4 4 4 4 4 4 
4 4 4 4 4 4 4 4 4 
4 4 4 4 4 4 4 4 4 
4 4 4 4 4 4 4 4 4 
4 4 4 4 4 4 4 4 4 
4 4 4 4 4 4 4 4 4 
4 4 4 4 4 4 4 4 4 
4 4 4 4 4 4 4 4 4 
4 4 4 4 4 4 4 4 4 
4 4 4 4 4 4 4 4 4 
4 4 4 4 4 4 4 4 4 
4 4 4 4 4 4 4 4 4 
4 4 4 4 4 4 4 4 4 
4 4 4 4 4 4 4 4 4 
4 4 4 4 4 4 4 4 4 
4 4 4 4 4 4 4 4 4 
4 4 4 4 4 4 4 4 4 
4 4 4 4 4 4 4 4 4 
4 4 4 4 4 4 4 4 4 
4 4 4 4 4 4 4 4 4 
4 4 4 4 4 4 4 4 4 
4 4 4 4 4 4 4 4 4 
4 4 4 4 4 4 4 4 4 
4 4 4 4 4 4 4 4 4 
4 4 4 4 4 4 4 4 4 
4 4 4 4 4 4 4 4 4 
4 4 4 4 4 4 4 4 4 
4 4 4 4 4 4 4 4 4 
4 4 4 4 4 4 4 4 4 
4 4 4 4 4 4 4 4 4 
4 4 4 4 4 4 4 4 4 
4 4 4 4 4 4 4 4 4 
4 4 4 4 4 4 4 4 4 
4 4 4 4 4 4 4 4 4 
4 4 4 4 4 4 4 4 4 
4 4 4 4 4 4 4 4 4 
4 4 4 4 4 4 4 4 4 
4 4 4 4 4 4 4 4 4 
4 4 4 4 4 4 4 4 4 
4 4 4 4 4 4 4 4 4 
4 4 4 4 4 4 4 4 4 
4 4 4 4 4 4 4 4 4 
4 4 4 4 4 4 4 4 4 
4 4 4 4 4 4 4 4 4 
4 4 4 4 4 4 4 4 4 
4 4 4 4 4 4 4 4 4 
4 4 4 4 4 4 4 4 4 
4 4 4 4 4 4 4 4 4 
4 4 4 4 4 4 4 4 4 
4 4 4 4 4 4 4 4 4 
4 4 4 4 4 4 4 4 4 
4 4 4 4 4 4 4 4 4 
4 4 4 4 4 4 4 4 4 
4 4 4 4 4 4 4 4 4 
4 4 4 4 4 4 4 4 4 
4 4 4 4 4 4 4 4 4 
4 4 4 4 4 4 4 4 4 
4 4 4 4 4 4 4 4 4 
4 4 4 4 4 4 4 4 4 
4 4 4 4 4 4 4 4 4 
4 4 4 4 4 4 4 4 4 
4 4 4 4 4 4 4 4 4 
4 4 4 4 4 4 4 4 4 
4 4 4 4 4 4 4 4 4 
4 4 4 4 4 4 4 4 4 
4 4 4 4 4 4 4 4 4 
4 4 4 4 4 4 4 4 4 
4 4 4 4 4 4 4 4 4 
4 4 4 4 4 4 4 4 4 
4 4 4 4 4 4 4 4 4 
4 4 4 4 4 4 4 4 4 
4 4 4 4 4 4 4 4 4 
4 4 4 4 4 4 4 4 4 
4 4 4 4 4 4 4 4 4 
4 4 4 4 4 4 4 4 4 
4 4 4 4 4 4 4 4 4 
4 4 4 4 4 4 4 4 4 
4 4 4 4 4 4 4 4 4 
4 4 4 4 4 4 4 4 4 
4 4 4 4 4 4 4 4 4 
4 4 4 4 4 4 4 4 4 
4 4 4 4 4 4 4 4 4 
4 4 4 4 4 4 4 4 4 
4 4 4 4 4 4 4 4 4 
4 4 4 4 4 4 4 4 4 
4 4 4 4 4 4 4 4 4 
4 4 4 4 4 4 4 4 4 
4 4 4 4 4 4 4 4 4 
4 4 4 4 4 4 4 4 4 
4 4 4 4 4 4 4 4 4 
4 4 4 4 4 4 4 4 4 
4 4 4 4 4 4 4 4 4 
4 4 4 4 4 4 4 4 4 
4 4 4 4 4 4 4 4 4 
4 4 4 4 4 4 4 4 4 
4 4 4 4 4 4 4 4 4 
4 4 4 4 4 4 4 4 4 
4 4 4 4 4 4 4 4 4 
4 4 4 4 4 4 4 4 4 
4 4 4 4 4 4 4 4 4 
4 4 4 4 4 4 4 4 4 
4 4 4 4 4 4 4 4 4 
4 4 4 4 4 4 4 4 4 
4 4 4 4 4 4 4 4 4 
4 4 4 4 4 4 4 4 4 
4 4 4 4 4 4 4 4 4 
4 4 4 4 4 4 4 4 4 
4 4 4 4 4 4 4 4 4 
4 4 4 4 4 4 4 4 4 
4 4 4 4 4 4 4 4 4 
4 4 4 4 4 4 4 4 4 
4 4 4 4 4 4 4 4 4 
4 4 4 4 4 4 4 4 4 
4 4 4 4 4 4 4 4 4 
4 4 4 4 4 4 4 4 4 
4 4 4 4 4 4 4 4 4 
4 4 4 4 4 4 4 4 4 
4 4 4 4 4 4 4 4 4 
4 4 4 4 4 4 4 4 4 
4 4 4 4 4 4 4 4 4 
4 4 4 4 4 4 4 4 4 
4 4 4 4 4 4 4 4 4 
4 4 4 4 4 4 4 4 4 
4 4 4 4 4 4 4 4 4 
4 4 4 4 4 4 4 4 4 
4 4 4 4 4 4 4 4 4 
4 4 4 4 4 4 4 4 4 
4 4 4 4 4 4 4 4 4 
4 4 4 4 4 4 4 4 4 
4 4 4 4 4 4 4 4 4 
4 4 4 4 4 4 4 4 4 
4 4 4 4 4 4 4 4 4 
4 4 4 4 4 4 4 4 4 
4 4 4 4 4 4 4 4 4 
4 4 4 4 4 4 4 4 4 
4 4 4 4 4 4 4 4 4 
4 4 4 4 4 4 4 4 4 
4 4 4 4 4 4 4 4 4 
4 4 4 4 4 4 4 4 4 
4 4 4 4 4 4 4 4 4 
4 4 4 4 4 4 4 4 4 
4 4 4 4 4 4 4 4 4 
4 4 4 4 4 4 4 4 4 
4 4 4 4 4 4 4 4 4 
4 4 4 4 4 4 4 4 4 
4 4 4 4 4 4 4 4 4 
4 4 4 4 4 4 4 4 4 
4 4 4 4 4 4 4 4 4 
4 4 4 4 4 4 4 4 4 
4 4 4 4 4 4 4 4 4 
4 4 4 4 4 4 4 4 4 
4 4 4 4 4 4 4 4 4 
4 4 4 4 4 4 4 4 4 
4 4 4 4 4 4 4 4 4 
4 4 4 4 4 4 4 4 4 
4 4 4 4 4 4 4 4 4 
4 4 4 4 4 4 4 4 4 
4 4 4 4 4 4 4 4 4 
4 4 4 4 4 4 4 4 4 
4 4 4 4 4 4 4 4 4 
4 4 4 4 4 4 4 4 4 
4 4 4 4 4 4 4 4 4 
4 4 4 4 4 4 4 4 4 
4 4 4 4 4 4 4 4 4 
4 4 4 4 4 4 4 4 4 
4 4 4 4 4 4 4 4 4 
4 4 4 4 4 4 4 4 4 
4 4 4 4 4 4 4 4 4 
4 4 4 4 4 4 4 4 4 
4 4 4 4 4 4 4 4 4 
4 4 4 4 4 4 4 4 4 
4 4 4 4 4 4 4 4 4 
4 4 4 4 4 4 4 4 4 
4 4 4 4 4 4 4 4 4 
4 4 4 4 4 4 4 4 4 
4 4 4 4 4 4 4 4 4 
4 4 4 4 4 4 4 4 4 
4 4 4 4 4 4 4 4 4 
4 4 4 4 4 4 4 4 4 
4 4 4 4 4 4 4 4 4 
4 4 4 4 4 4 4 4 4 
4 4 4 4 4 4 4 4 4 
4 4 4 4 4 4 4 4 4 
4 4 4 4 4 4 4 4 4 
4 4 4 4 4 4 4 4 4 
4 4 4 4 4 4 4 4 4 
4 4 4 4 4 4 4 4 4 
4 4 4 4 4 4 4 4 4 
4 4 4 4 4 4 4 4 4 
4 4 4 4 4 4 4 4 4 
4 4 4 4 4 4 4 4 4 
4 4 4 4 4 4 4 4 4 
4 4 4 4 4 4 4 4 4 
4 4 4 4 4 4 4 4 4 
4 4 4 4 4 4 4 4 4 
4 4 4 4 4 4 4 4 4 
4 4 4 4 4 4 4 4 4 
4 4 4 4 4 4 4 4 4 
4 4 4 4 4 4 4 4 4 
4 4 4 4 4 4 4 4 4 
4 4 4 4 4 4 4 4 4 
4 4 4 4 4 4 4 4 4 
4 4 4 4 4 4 4 4 4 
4 4 4 4 4 4 4 4 4 
4 4 4 4 4 4 4 4 4 
4 4 4 4 4 4 4 4 4 
4 4 4 4 4 4 4 4 4 
4 4 4 4 4 4 4 4 4 
4 4 4 4 4 4 4 4 4 
4 4 4 4 4 4 4 4 4 
4 4 4 4 4 4 4 4 4 
4 4 4 4 4 4 4 4 4 
4 4 4 4 4 4 4 4 4 
4 4 4 4 4 4 4 4 4 
4 4 4 4 4 4 4 4 4 
4 4 4 4 4 4 4 4 4 
4 4 4 4 4 4 4 4 4 
4 4 4 4 4 4 4 4 4 
4 4 4 4 4 4 4 4 4 
4 4 4 4 4 4 4 4 4 
4 4 4 4 4 4 4 4 4 
4 4 4 4 4 4 4 4 4 
4 4 4 4 4 4 4 4 4 
4 4 4 4 4 4 4 4 4 
4 4 4 4 4 4 4 4 4 
4 4 4 4 4 4 4 4 4 
4 4 4 4 4 4 4 4 4 
4 4 4 4 4 4 4 4 4 
4 4 4 4 4 4 4 4 4 
4 4 4 4 4 4 4 4 4 
4 4 4 4 4 4 4 4 4 
4 4 4 4 4 4 4 4 4 
4 4 4 4 4 4 4 4 4 
4 4 4 4 4 4 4 4 4 
4 4 4 4 4 4 4 4 4 
4 4 4 4 4 4 4 4 4 
4 4 4 4 4 4 4 4 4 
4 4 4 4 4 4 4 4 4 
4 4 4 4 4 4 4 4 4 
4 4 4 4 4 4 4 4 4 
4 4 4 4 4 4 4 4 4 
4 4 4 4 4 4 4 4 4 
4 4 4 4 4 4 4 4 4 
4 4 4 4 4 4 4 4 4 
4 4 4 4 4 4 4 4 4 
4 4 4 4 4 4 4 4 4 
4 4 4 4 4 4 4 4 4 
4 4 4 4 4 4 4 4 4 
4 4 4 4 4 4 4 4 4 
4 4 4 4 4 4 4 4 4 
4 4 4 4 4 4 4 4 4 
4 4 4 4 4 4 4 4 4 
4 4 4 4 4 4 4 4 4 
4 4 4 4 4 4 4 4 4 
4 4 4 4 4 4 4 4 4 
4 4 4 4 4 4 4 4 4 
4 4 4 4 4 4 4 4 4 
4 4 4 4 4 4 4 4 4 
4 4 4 4 4 4 4 4 4 
4 4 4 4 4 4 4 4 4 
4 4 4 4 4 4 4 4 4 
4 4 4 4 4 4 4 4 4 
4 4 4 4 4 4 4 4 4 
4 4 4 4 4 4 4 4 4 
4 4 4 4 4 4 4 4 4 
4 4 4 4 4 4 4 4 4 
4 4 4 4 4 4 4 4 4 
4 4 4 4 4 4 4 4 4 
4 4 4 4 4 4 4 4 4 
4 4 4 4 4 4 4 4 4 
4 4 4 4 4 4 4 4 4 
4 4 4 4 4 4 4 4 4 
4 4 4 4 4 4 4 4 4 
4 4 4 4 4 4 4 4 4 
4 4 4 4 4 4 4 4 4 
4 4 4 4 4 4 4 4 4 
4 4 4 4 4 4 4 4 4 
4 4 4 4 4 4 4 4 4 
4 4 4 4 4 4 4 4 4 
4 4 4 4 4 4 4 4 4 
4 4 4 4 4 4 4 4 4 
4 4 4 4 4 4 4 4 4 
4 4 4 4 4 4 4 4 4 
4 4 4 4 4 4 4 4 4 
4 4 4 4 4 4 4 4 4 
4 4 4 4 4 4 4 4 4 
4 4 4 4 4 4 4 4 4 
4 4 4 4 4 4 4 4 4 
4 4 4 4 4 4 4 4 4 
4 4 4 4 4 4 4 4 4 
4 4 4 4 4 4 4 4 4 
4 4 4 4 4 4 4 4 4 
4 4 4 4 4 4 4 4 4 
4 4 4 4 4 4 4 4 4 
4 4 4 4 4 4 4 4 4 
4 4 4 4 4 4 4 4 4 
4 4 4 4 4 4 4 4 4 
4 4 4 4 4 4 4 4 4 
4 4 4 4 4 4 4 4 4 
4 4 4 4 4 4 4 4 4 
4 4 4 4 4 4 4 4 4 
4 4 4 4 4 4 4 4 4 
4 4 4 4 4 4 4 4 4 
4 4 4 4 4 4 4 4 4 
4 4 4 4 4 4 4 4 4 
4 4 4 4 4 4 4 4 4 
4 4 4 4 4 4 4 4 4 
4 4 4 4 4 4 4 4 4 
4 4 4 4 4 4 4 4 4 
4 4 4 4 4 4 4 4 4 
4 4 4 4 4 4 4 4 4 
4 4 4 4 4 4 4 4 4 
4 4 4 4 4 4 4 4 4 
4 4 4 4 4 4 4 4 4 
4 4 4 4 4 4 4 4 4 
4 4 4 4 4 4 4 4 4 
4 4 4 4 4 4 4 4 4 
4 4 4 4 4 4 4 4 4 
4 4 4 4 4 4 4 4 4 
4 4 4 4 4 4 4 4 4 
4 4 4 4 4 4 4 4 4 
4 4 4 4 4 4 4 4 4 
4 4 4 4 4 4 4 4 4 
4 4 4 4 4 4 4 4 4 
4 4 4 4 4 4 4 4 4 
4 4 4 4 4 4 4 4 4 
4 4 4 4 4 4 4 4 4 
4 4 4 4 4 4 4 4 4 
4 4 4 4 4 4 4 4 4 
4 4 4 4 4 4 4 4 4 
4 4 4 4 4 4 4 4 4 
4 4 4 4 4 4 4 4 4 
4 4 4 4 4 4 4 4 4 
4 4 4 4 4 4 4 4 4 
4 4 4 4 4 4 4 4 4 
4 4 4 4 4 4 4 4 4 
4 4 4 4 4 4 4 4 4 
4 4 4 4 4 4 4 4 4 
4 4 4 4 4 4 4 4 4 
4 4 4 4 4 4 4 4 4 
4 4 4 4 4 4 4 4 4 
4 4 4 4 4 4 4 4 4 
4 4 4 4 4 4 4 4 4 
4 4 4 4 4 4 4 4 4 
4 4 4 4 4 4 4 4 4 
4 4 4 4 4 4 4 4 4 
4 4 4 4 4 4 4 4 4 
4 4 4 4 4 4 4 4 4 
4 4 4 4 4 4 4 4 4 
4 4 4 4 4 4 4 4 4 
4 4 4 4 4 4 4 4 4 
4 4 4 4 4 4 4 4 4 
4 4 4 4 4 4 4 4 4 
4 4 4 4 4 4 4 4 4 
4 4 4 4 4 4 4 4 4 
4 4 4 4 4 4 4 4 4 
4 4 4 4 4 4 4 4 4 
4 4 4 4 4 4 4 4 4 
4 4 4 4 4 4 4 4 4 
4 4 4 4 4 4 4 4 4 
4 4 4 4 4 4 4 4 4 
4 4 4 4 4 4 4 4 4 
4 4 4 4 4 4 4 4 4 
4 4 4 4 4 4 4 4 4 
4 4 4 4 4 4 4 4 4 
4 4 4 4 4 4 4 4 4 
4 4 4 4 4 4 4 4 4 
4 4 4 4 4 4 4 4 4 
4 4 4 4 4 4 4 4 4 
4 4 4 4 4 4 4 4 4 
4 4 4 4 4 4 4 4 4 
4 4 4 4 4 4 4 4 4 
4 4 4 4 4 4 4 4 4 
4 4 4 4 4 4 4 4 4 
4 4 4 4 4 4 4 4 4 
4 4 4 4 4 4 4 4 4 
4 4 4 4 4 4 4 4 4 
4 4 4 4 4 4 4 4 4 
4 4 4 4 4 4 4 4 4 
4 4 4 4 4 4 4 4 4 
4 4 4 4 4 4 4 4 4 
4 4 4 4 4 4 4 4 4 
4 4 4 4 4 4 4 4 4 
4 4 4 4 4 4 4 4 4 
4 4 4 4 4 4 4 4 4 
4 4 4 4 4 4 4 4 4 
4 4 4 4 4 4 4 4 4 
4 4 4 4 4 4 4 4 4 
4 4 4 4 4 4 4 4 4 
4 4 4 4 4 4 4 4 4 
4 4 4 4 4 4 4 4 4 
4 4 4 4 4 4 4 4 4 
4 4 4 4 4 4 4 4 4 
4 4 4 4 4 4 4 4 4 
4 4 4 4 4 4 4 4 4 
4 4 4 4 4 4 4 4 4 
4 4 4 4 4 4 4 4 4 
4 4 4 4 4 4 4 4 4 
4 4 4 4 4 4 4 4 4 
4 4 4 4 4 4 4 4 4 
4 4 4 4 4 4 4 4 4 
4 4 4 4 4 4 4 4 4 
4 4 4 4 4 4 4 4 4 
4 4 4 4 4 4 4 4 4 
4 4 4 4 4 4 4 4 4 
4 4 4 4 4 4 4 4 4 
4 4 4 4 4 4 4 4 4 
4 4 4 4 4 4 4 4 4 
4 4 4 4 4 4 4 4 4 
4 4 4 4 4 4 4 4 4 
4 4 4 4 4 4 4 4 4 
4 4 4 4 4 4 4 4 4 
4 4 4 4 4 4 4 4 4 
4 4 4 4 4 4 4 4 4 
4 4 4 4 4 4 4 4 4 
4 4 4 4 4 4 4 4 4 
4 4 4 4 4 4 4 4 4 
4 4 4 4 4 4 4 4 4 
4 4 4 4 4 4 4 4 4 
4 4 4 4 4 4 4 4 4 
4 4 4 4 4 4 4 4 4 
4 4 4 4 4 4 4 4 4 
4 4 4 4 4 4 4 4 4 
4 4 4 4 4 4 4 4 4 
4 4 4 4 4 4 4 4 4 
4 4 4 4 4 4 4 4 4 
4 4 4 4 4 4 4 4 4 
4 4 4 4 4 4 4 4 4 
4 4 4 4 4 4 4 4 4 
4 4 4 4 4 4 4 4 4 
4 4 4 4 4 4 4 4 4 
4 4 4 4 4 4 4 4 4 
4 4 4 4 4 4 4 4 4 
4 4 4 4 4 4 4 4 4 
4 4 4 4 4 4 4 4 4 
4 4 4 4 4 4 4 4 4 
4 4 4 4 4 4 4 4 4 
4 4 4 4 4 4 4 4 4 
4 4 4 4 4 4 4 4 4 
4 4 4 4 4 4 4 4 4 
4 4 4 4 4 4 4 4 4 
4 4 4 4 4 4 4 4 4 
4 4 4 4 4 4 4 4 4 
4 4 4 4 4 4 4 4 4 
4 4 4 4 4 4 4 4 4 
4 4 4 4 4 4 4 4 4 
4 4 4 4 4 4 4 4 4 
4 4 4 4 4 4 4 4 4 
4 4 4 4 4 4 4 4 4 
4 4 4 4 4 4 4 4 4 
4 4 4 4 4 4 4 4 4 
4 4 4 4 4 4 4 4 4 
4 4 4 4 4 4 4 4 4 
4 4 4 4 4 4 4 4 4 
4 4 4 4 4 4 4 4 4 
4 4 4 4 4 4 4 4 4 
4 4 4 4 4 4 4 4 4 
4 4 4 4 4 4 4 4 4 
4 4 4 4 4 4 4 4 4 
4 4 4 4 4 4 4 4 4 
4 4 4 4 4 4 4 4 4 
4 4 4 4 4 4 4 4 4 
4 4 4 4 4 4 4 4 4 
4 4 4 4 4 4 4 4 4 
4 4 4 4 4 4 4 4 4 
4 4 4 4 4 4 4 4 4 
4 4 4 4 4 4 4 4 4 
4 4 4 4 4 4 4 4 4 
4 4 4 4 4 4 4 4 4 
4 4 4 4 4 4 4 4 4 
4 4 4 4 4 4 4 4 4 
4 4 4 4 4 4 4 4 4 
4 4 4 4 4 4 4 4 4 
4 4 4 4 4 4 4 4 4 
4 4 4 4 4 4 4 4 4 
4 4 4 4 4 4 4 4 4 
4 4 4 4 4 4 4 4 4 
4 4 4 4 4 4 4 4 4 
4 4 4 4 4 4 4 4 4 
4 4 4 4 4 4 4 4 4 
4 4 4 4 4 4 4 4 4 
4 4 4 4 4 4 4 4 4 
4 4 4 4 4 4 4 4 4 
4 4 4 4 4 4 4 4 4 
4 4 4 4 4 4 4 4 4 
4 4 4 4 4 4 4 4 4 
4 4 4 4 4 4 4 4 4 
4 4 4 4 4 4 4 4 4 
4 4 4 4 4 4 4 4 4 
4 4 4 4 4 4 4 4 4 
4 4 4 4 4 4 4 4 4 
4 4 4 4 4 4 4 4 4 
4 4 4 4 4 4 4 4 4 
4 4 4 4 4 4 4 4 4 
4 4 4 4 4 4 4 4 4 
4 4 4 4 4 4 4 4 4 
4 4 4 4 4 4 4 4 4 
4 4 4 4 4 4 4 4 4 
4 4 4 4 4 4 4 4 4 
4 4 4 4 4 4 4 4 4 
4 4 4 4 4 4 4 4 4 
4 4 4 4 4 4 4 4 4 
4 4 4 4 4 4 4 4 4 
4 4 4 4 4 4 4 4 4 
4 4 4 4 4 4 4 4 4 
4 4 4 4 4 4 4 4 4 
4 4 4 4 4 4 4 4 4 
4 4 4 4 4 4 4 4 4 
4 4 4 4 4 4 4 4 4 
4 4 4 4 4 4 4 4 4 
4 4 4 4 4 4 4 4 4 
4 4 4 4 4 4 4 4 4 
4 4 4 4 4 4 4 4 4 
4 4 4 4 4 4 4 4 4 
4 4 4 4 4 4 4 4 4 
4 4 4 4 4 4 4 4 4 
4 4 4 4 4 4 4 4 4 
4 4 4 4 4 4 4 4 4 
4 4 4 4 4 4 4 4 4 
4 4 4 4 4 4 4 4 4 
4 4 4 4 4 4 4 4 4 
4 4 4 4 4 4 4 4 4 
4 4 4 4 4 4 4 4 4 
4 4 4 4 4 4 4 4 4 
4 4 4 4 4 4 4 4 4 
4 4 4 4 4 4 4 4 4 
4 4 4 4 4 4 4 4 4 
4 4 4 4 4 4 4 4 4 
4 4 4 4 4 4 4 4 4 
4 4 4 4 4 4 4 4 4 
4 4 4 4 4 4 4 4 4 
4 4 4 4 4 4 4 4 4 
4 4 4 4 4 4 4 4 4 
4 4 4 4 4 4 4 4 4 
4 4 4 4 4 4 4 4 4 
4 4 4 4 4 4 4 4 4 
4 4 4 4 4 4 4 4 4 
4 4 4 4 4 4 4 4 4 
4 4 4 4 4 4 4 4 4 
4 4 4 4 4 4 4 4 4 
4 4 4 4 4 4 4 4 4 
4 4 4 4 4 4 4 4 4 
4 4 4 4 4 4 4 4 4 
4 4 4 4 4 4 4 4 4 
4 4 4 4 4 4 4 4 4 
4 4 4 4 4 4 4 4 4 
4 4 4 4 4 4 4 4 4 
4 4 4 4 4 4 4 4 4 
4 4 4 4 4 4 4 4 4 
4 4 4 4 4 4 4 4 4 
4 4 4 4 4 4 4 4 4 
4 4 4 4 4 4 4 4 4 
4 4 4 4 4 4 4 4 4 
4 4 4 4 4 4 4 4 4 
4 4 4 4 4 4 4 4 4 
4 4 4 4 4 4 4 4 4 
4 4 4 4 4 4 4 4 4 
4 4 4 4 4 4 4 4 4 
4 4 4 4 4 4 4 4 4 
4 4 4 4 4 4 4 4 4 
4 4 4 4 4 4 4 4 4 
4 4 4 4 4 4 4 4 4 
4 4 4 4 4 4 4 4 4 
4 4 4 4 4 4 4 4 4 
4 4 4 4 4 4 4 4 4 
4 4 4 4 4 4 4 4 4 
4 4 4 4 4 4 4 4 4 
4 4 4 4 4 4 4 4 4 
4 4 4 4 4 4 4 4 4 
4 4 4 4 4 4 4 4 4 
4 4 4 4 4 4 4 4 4 
4 4 4 4 4 4 4 4 4 
4 4 4 4 4 4 4 4 4 
4 4 4 4 4 4 4 4 4 
4 4 4 4 4 4 4 4 4 
4 4 4 4 4 4 4 4 4 
4 4 4 4 4 4 4 4 4 
4 4 4 4 4 4 4 4 4 
4 4 4 4 4 4 4 4 4 
4 4 4 4 4 4 4 4 4 
4 4 4 4 4 4 4 4 4 
4 4 4 4 4 4 4 4 4 
4 4 4 4 4 4 4 4 4 
4 4 4 4 4 4 4 4 4 
4 4 4 4 4 4 4 4 4 
4 4 4 4 4 4 4 4 4 
4 4 4 4 4 4 4 4 4 
4 4 4 4 4 4 4 4 4 
4 4 4 4 4 4 4 4 4 
4 4 4 4 4 4 4 4 4 
4 4 4 4 4 4 4 4 4 
4 4 4 4 4 4 4 4 4 
4 4 4 4 4 4 4 4 4 
4 4 4 4 4 4 4 4 4 
4 4 4 4 4 4 4 4 4 
4 4 4 4 4 4 4 4 4 
4 4 4 4 4 4 4 4 4 
4 4 4 4 4 4 4 4 4 
4 4 4 4 4 4 4 4 4 
4 4 4 4 4 4 4 4 4 
4 4 4 4 4 4 4 4 4 
4 4 4 4 4 4 4 4 4 
4 4 4 4 4 4 4 4 4 
4 4 4 4 4 4 4 4 4 
4 4 4 4 4 4 4 4 4 
4 4 4 4 4 4 4 4 4 
4 4 4 4 4 4 4 4 4 
4 4 4 4 4 4 4 4 4 
4 4 4 4 4 4 4 4 4 
4 4 4 4 4 4 4 4 4 
4 4 4 4 4 4 4 4 4 
4 4 4 4 4 4 4 4 4 
4 4 4 4 4 4 4 4 4 
4 4 4 4 4 4 4 4 4 
4 4 4 4 4 4 4 4 4 
4 4 4 4 4 4 4 4 4 
4 4 4 4 4 4 4 4 4 
4 4 4 4 4 4 4 4 4 
4 4 4 4 4 4 4 4 4 
4 4 4 4 4 4 4 4 4 
4 4 4 4 4 4 4 4 4 
4 4 4 4 4 4 4 4 4 
4 4 4 4 4 4 4 4 4 
4 4 4 4 4 4 4 4 4 
4 4 4 4 4 4 4 4 4 
4 4 4 4 4 4 4 4 4 
4 4 4 4 4 4 4 4 4 
4 4 4 4 4 4 4 4 4 
4 4 4 4 4 4 4 4 4 
4 4 4 4 4 4 4 4 4 
4 4 4 4 4 4 4 4 4 
4 4 4 4 4 4 4 4 4 
4 4 4 4 4 4 4 4 4 
4 4 4 4 4 4 4 4 4 
4 4 4 4 4 4 4 4 4 
4 4 4 4 4 4 4 4 4 
4 4 4 4 4 4 4 4 4 
4 4 4 4 4 4 4 4 4 
4 4 4 4 4 4 4 4 4 
4 4 4 4 4 4 4 4 4 
4 4 4 4 4 4 4 4 4 
4 4 4 4 4 4 4 4 4 
4 4 4 4 4 4 4 4 4 
4 4 4 4 4 4 4 4 4 
4 4 4 4 4 4 4 4 4 
4 4 4 4 4 4 4 4 4 
4 4 4 4 4 4 4 4 4 
4 4 4 4 4 4 4 4 4 
4 4 4 4 4 4 4 4 4 
4 4 4 4 4 4 4 4 4 
4 4 4 4 4 4 4 4 4 
4 4 4 4 4 4 4 4 4 
4 4 4 4 4 4 4 4 4 
4 4 4 4 4 4 4 4 4 
4 4 4 4 4 4 4 4 4 
4 4 4 4 4 4 4 4 4 
4 4 4 4 4 4 4 4 4 
4 4 4 4 4 4 4 4 4 
4 4 4 4 4 4 4 4 4 
4 4 4 4 4 4 4 4 4 
4 4 4 4 4 4 4 4 4 
4 4 4 4 4 4 4 4 4 
4 4 4 4 4 4 4 4 4 
4 4 4 4 4 4 4 4 4 
4 4 4 4 4 4 4 4 4 
4 4 4 4 4 4 4 4 4 
4 4 4 4 4 4 4 4 4 
4 4 4 4 4 4 4 4 4 
4 4 4 4 4 4 4 4 4 
4 4 4 4 4 4 4 4 4 
4 4 4 4 4 4 4 4 4 
4 4 4 4 4 4 4 4 4 
4 4 4 4 4 4 4 4 4 
4 4 4 4 4 4 4 4 4 
4 4 4 4 4 4 4 4 4 
4 4 4 4 4 4 4 4 4 
4 4 4 4 4 4 4 4 4 
4 4 4 4 4 4 4 4 4 
4 4 4 4 4 4 4 4 4 
4 4 4 4 4 4 4 4 4 
4 4 4 4 4 4 4 4 4 
4 4 4 4 4 4 4 4 4 
4 4 4 4 4 4 4 4 4 
4 4 4 4 4 4 4 4 4 
4 4 4 4 4 4 4 4 4 
4 4 4 4 4 4 4 4 4 
4 4 4 4 4 4 4 4 4 
4 4 4 4 4 4 4 4 4 
4 4 4 4 4 4 4 4 4 
4 4 4 4 4 4 4 4 4 
4 4 4 4 4 4 4 4 4 
4 4 4 4 4 4 4 4 4 
4 4 4 4 4 4 4 4 4 
4 4 4 4 4 4 4 4 4 
4 4 4 4 4 4 4 4 4 
4 4 4 4 4 4 4 4 4 
4 4 4 4 4 4 4 4 4 
4 4 4 4 4 4 4 4 4 
4 4 4 4 4 4 4 4 4 
4 4 4 4 4 4 4 4 4 
4 4 4 4 4 4 4 4 4 
4 4 4 4 4 4 4 4 4 
4 4 4 4 4 4 4 4 4 
4 4 4 4 4 4 4 4 4 
4 4 4 4 4 4 4 4 4 
4 4 4 4 4 4 4 4 4 
4 4 4 4 4 4 4 4 4 
4 4 4 4 4 4 4 4 4 
4 4 4 4 4 4 4 4 4 
4 4 4 4 4 4 4 4 4 
4 4 4 4 4 4 4 4 4 
4 4 4 4 4 4 4 4 4 
4 4 4 4 4 4 4 4 4 
4 4 4 4 4 4 4 4 4 
4 4 4 4 4 4 4 4 4 
4 4 4 4 4 4 4 4 4 
4 4 4 4 4 4 4 4 4 
4 4 4 4 4 4 4 4 4 
4 4 4 4 4 4 4 4 4 
4 4 4 4 4 4 4 4 4 
4 4 4 4 4 4 4 4 4 
4 4 4 4 4 4 4 4 4 
4 4 4 4 4 4 4 4 4 
4 4 4 4 4 4 4 4 4 
4 4 4 4 4 4 4 4 4 
4 4 4 4 4 4 4 4 4 
4 4 4 4 4 4 4 4 4 
4 4 4 4 4 4 4 4 4 
4 4 4 4 4 4 4 4 4 
4 4 4 4 4 4 4 4 4 
4 4 4 4 4 4 4 4 4 
4 4 4 4 4 4 4 4 4 
4 4 4 4 4 4 4 4 4 
4 4 4 4 4 4 4 4 4 
4 4 4 4 4 4 4 4 4 
4 4 4 4 4 4 4 4 4 
4 4 4 4 4 4 4 4 4 
4 4 4 4 4 4 4 4 4 
4 4 4 4 4 4 4 4 4 
4 4 4 4 4 4 4 4 4 
4 4 4 4 4 4 4 4 4 
4 4 4 4 4 4 4 4 4 
4 4 4 4 4 4 4 4 4 
4 4 4 4 4 4 4 4 4 
4 4 4 4 4 4 4 4 4 
4 4 4 4 4 4 4 4 4 
4 4 4 4 4 4 4 4 4 
4 4 4 4 4 4 4 4 4 
4 4 4 4 4 4 4 4 4 
4 4 4 4 4 4 4 4 4 
4 4 4 4 4 4 4 4 4 
4 4 4 4 4 4 4 4 4 
4 4 4 4 4 4 4 4 4 
4 4 4 4 4 4 4 4 4 
4 4 4 4 4 4 4 4 4 
4 4 4 4 4 4 4 4 4 
4 4 4 4 4 4 4 4 4 
4 4 4 4 4 4 4 4 4 
4 4 4 4 4 4 4 4 4 
4 4 4 
METADATA
INFORMATION 0

NORMALS Normals float
0.19891 0.0898532 -0.97589 0.257395 0.118327 -0.959034 0.297973 0.0476265 -0.953385 
0.110322 0.126379 -0.985828 0.152275 0.172908 -0.973096 0.0307248 0.160226 -0.986602 
0.0597615 0.214944 -0.974796 -0.0400928 0.190905 -0.980789 -0.027257 0.257447 -0.965908 
-0.0991526 0.207128 -0.973276 -0.100044 0.308858 -0.945832 -0.187622 0.247158 -0.950637 
-0.147388 0.332287 -0.931591 -0.258009 0.366264 -0.894026 0.25093 0.00148618 -0.968004 
0.359152 -0.0200013 -0.933065 0.155478 0.0322179 -0.987314 0.0725134 0.0634296 -0.995348 
-0.00744973 0.0907353 -0.995847 -0.0892484 0.109722 -0.989947 -0.18491 0.135106 -0.973424 
-0.274357 0.273434 -0.921934 0.292741 -0.0648917 -0.953987 0.400959 -0.0903389 -0.911631 
0.199179 -0.0563382 -0.978342 0.112676 -0.0300383 -0.993178 0.0248925 -2.946e-05 -0.99969 
-0.0676507 0.0264554 -0.997358 -0.164654 0.0480893 -0.985178 -0.305964 0.165728 -0.937507 
-0.266435 0.0570479 -0.962163 -0.424896 0.0643907 -0.902949 -0.394731 0.147065 -0.906951 
-0.54098 0.173726 -0.822897 0.342945 -0.137437 -0.929247 0.443782 -0.198373 -0.873903 
0.246188 -0.137418 -0.959431 0.152684 -0.114795 -0.981585 0.0605205 -0.0850341 -0.994538 
-0.0393067 -0.052969 -0.997822 -0.146684 -0.0236979 -0.988899 -0.261243 -0.00303317 -0.965268 
-0.397492 0.0157917 -0.91747 -0.551001 0.105534 -0.827805 0.369534 -0.220201 -0.902749 
0.295299 -0.225445 -0.928425 0.317777 -0.298382 -0.899992 0.19472 -0.193391 -0.961605 
0.0933687 -0.160505 -0.982609 -0.007961 -0.128451 -0.991684 -0.120173 -0.0920671 -0.988475 
-0.243 -0.0559978 -0.968409 -0.375533 -0.0174211 -0.926645 -0.507771 0.0509105 -0.859986 
0.236359 -0.277002 -0.931345 0.34487 -0.381993 -0.857407 0.118321 -0.229614 -0.966063 
0.0159344 -0.199862 -0.979694 -0.0898155 -0.163489 -0.982448 -0.21029 -0.117962 -0.970496 
-0.339656 -0.0666737 -0.938183 -0.461129 -0.00413264 -0.887323 0.238114 -0.339549 -0.90995 
0.12541 -0.311444 -0.941953 0.0918514 -0.39751 -0.912989 0.0159331 -0.276813 -0.960792 
-0.0705051 -0.243528 -0.967328 -0.173137 -0.197509 -0.964891 -0.294395 -0.138365 -0.945615 
-0.410845 -0.0790589 -0.908271 -0.00718743 -0.388717 -0.921329 0.051353 -0.498952 -0.865107 
-0.0732386 -0.343495 -0.936294 -0.146887 -0.300114 -0.942526 -0.245251 -0.236671 -0.940127 
-0.364314 -0.171779 -0.915296 -0.0456351 -0.474499 -0.879072 -0.125981 -0.415031 -0.901043 
-0.212946 -0.356369 -0.909755 -0.310814 -0.280581 -0.908113 0.290596 0.127378 -0.94833 
0.365977 0.0351632 -0.929959 0.194446 0.196591 -0.961011 0.0949333 0.247972 -0.964105 
-0.0055097 0.291152 -0.956661 -0.111579 0.334825 -0.935651 -0.249509 0.402154 -0.880918 
-0.346342 0.417147 -0.840259 0.448145 -0.0707871 -0.891154 -0.384836 0.365765 -0.847418 
0.485908 -0.153177 -0.860483 -0.385415 0.247418 -0.888954 -0.510397 0.232396 -0.827941 
-0.617181 0.239886 -0.749361 0.521727 -0.25501 -0.814107 -0.597714 0.166341 -0.784263 
0.473382 -0.292374 -0.830919 0.404261 -0.310172 -0.860445 0.41557 -0.388932 -0.822213 
-0.551511 0.0888926 -0.829418 0.412605 -0.468164 -0.781396 -0.494657 -0.0188288 -0.868884 
0.336742 -0.449702 -0.827268 0.221634 -0.42383 -0.878206 0.184418 -0.511989 -0.838962 
-0.451337 -0.127462 -0.883203 0.143343 -0.58268 -0.79996 -0.400132 -0.246622 -0.88265 
0.0620689 -0.576463 -0.814762 -0.0795201 -0.508988 -0.857093 -0.192573 -0.44717 -0.873473 
-0.304306 -0.367774 -0.878715 0.110938 0.420204 -0.900623 0.111397 0.506271 -0.855149 
0.168724 0.425737 -0.888977 0.0108116 0.455265 -0.89029 0.0588011 0.513658 -0.855978 
-0.046405 0.551039 -0.833188 0.144345 0.373178 -0.916462 0.201673 0.389542 -0.898658 
0.0200503 0.407216 -0.913112 -0.0772537 0.495851 -0.864964 0.317604 0.286848 -0.903795 
0.398723 0.288332 -0.870565 0.441359 0.240929 -0.864381 0.228248 0.321369 -0.919035 
0.276953 0.340713 -0.89845 0.167596 0.33133 -0.928511 0.0795454 0.370192 -0.925543 
-0.111121 0.465511 -0.878039 -0.024841 0.423079 -0.905752 -0.087359 0.460319 -0.883445 
-0.153232 0.50804 -0.847594 -0.144248 0.469669 -0.870978 -0.187942 0.547108 -0.81569 
-0.256854 0.486607 -0.835009 -0.221827 0.555582 -0.801325 -0.329639 0.580189 -0.744794 
0.396373 0.217974 -0.891838 0.516627 0.166586 -0.839848 0.301597 0.241143 -0.922437 
0.232109 0.269104 -0.934724 0.148402 0.306168 -0.940339 0.0646652 0.354637 -0.932765 
-0.0130354 0.392758 -0.919549 -0.0976276 0.413835 -0.905102 -0.225685 0.443498 -0.867396 
0.433904 0.170516 -0.884676 0.365939 0.169019 -0.915162 0.399867 0.0987874 -0.911234 
0.299175 0.187319 -0.935631 0.220825 0.235221 -0.946524 0.143338 0.279998 -0.949239 
0.057252 0.33007 -0.942219 -0.0358796 0.365953 -0.929941 -0.138697 0.395264 -0.908036 
-0.367489 0.481308 -0.795798 -0.254553 0.433579 -0.864414 -0.393979 0.4584 -0.796649 
-0.391952 0.480906 -0.784285 0.361063 0.0939178 -0.9278 0.458634 0.0215232 -0.888364 
0.286388 0.156336 -0.945273 0.232504 0.19479 -0.95289 0.13134 0.264528 -0.955392 
0.0307873 0.310896 -0.949945 -0.0728843 0.347699 -0.934769 -0.176727 0.378284 -0.908663 
-0.28698 0.401539 -0.869718 -0.396813 0.441939 -0.804506 0.418262 0.0112259 -0.908257 
0.518915 -0.0526912 -0.8532 0.340088 0.0806949 -0.936925 -0.489051 0.409179 -0.770325 
-0.415304 0.431575 -0.800791 -0.596484 0.377102 -0.70852 0.486582 -0.0745436 -0.870449 