# vtk DataFile Version 4.2
3D Slicer output. SPACE=RAS
ASCII
DATASET POLYDATA
POINTS 2422 float
-81.3354 -96.3121 69.6298 -81.2473 -96.5552 69.5458 -81.8145 -96.4885 69.6471 
-82.062 -96.4393 69.7184 -81.9393 -96.2236 69.7637 -82.3017 -96.2422 69.8667 
-81.3726 -96.8514 69.4886 -81.0237 -96.7366 69.482 -81.7148 -96.7687 69.5623 
-82.2202 -96.5894 69.7367 -82.3933 -96.4421 69.8459 -80.4371 -97.3469 69.3302 
-81.0624 -97.118 69.4022 -80.7379 -96.9279 69.4198 -81.6395 -97.0661 69.5001 
-81.9274 -96.9686 69.5872 -80.942 -97.4704 69.3391 -81.261 -97.4145 69.3896 
-81.5637 -97.3613 69.4568 -82.1447 -97.1521 69.6542 -82.4108 -97.0092 69.7786 
-80.5196 -97.8418 69.2809 -80.1895 -97.9082 69.2775 -80.8395 -97.7746 69.3081 
-81.4541 -97.6541 69.4255 -81.7692 -97.5837 69.5203 -82.0804 -97.4669 69.6339 
-80.4185 -98.1421 69.2718 -80.1019 -98.227 69.27 -81.0567 -97.9957 69.3464 
-81.3266 -97.9033 69.4014 -81.9982 -97.7925 69.6286 -82.3128 -97.6565 69.7651 
-80.0519 -98.5298 69.2822 -80.6308 -98.3611 69.3031 -81.6353 -98.2552 69.5504 
-82.2196 -97.9417 69.7599 -80.2648 -98.6563 69.298 -80.8234 -98.5832 69.3711 
-81.1491 -98.5262 69.4434 -81.4734 -98.5043 69.5483 -80.6757 -98.8582 69.4048 
-81.0068 -98.8069 69.4747 -80.9734 -96.3311 69.6098 -81.42 -96.0439 69.7437 
-81.7592 -95.9728 69.8288 -82.6338 -96.5109 69.9594 -80.1782 -96.9126 69.4461 
-80.4525 -96.7515 69.4724 -82.6576 -96.8358 69.9226 -79.9504 -97.6393 69.3221 
-82.6424 -97.159 69.9035 -79.8448 -97.9943 69.2956 -82.609 -97.4937 69.9121 
-82.5653 -97.8935 69.9643 -82.0347 -98.3909 69.7624 -79.8397 -98.9902 69.3543 
-81.6321 -98.8127 69.7205 -80.1321 -99.1015 69.392 -80.4885 -99.1347 69.4526 
-81.2245 -99.0091 69.6224 -81.2612 -95.4538 70.0064 -81.3949 -95.1161 70.1988 
-81.9152 -95.3512 70.14 -81.7561 -95.0812 70.2631 -82.2094 -95.1407 70.3306 
-81.0757 -95.8526 69.8086 -80.6707 -95.6415 69.9037 -81.4993 -95.7275 69.8959 
-82.1004 -95.5368 70.0981 -82.3916 -95.44 70.2456 -79.2156 -96.0747 69.9239 
-79.1636 -96.3945 69.792 -79.8372 -96.227 69.7257 -79.5742 -95.9591 69.8935 
-80.3275 -95.7738 69.8622 -82.8686 -96.2346 70.1608 -83.1788 -95.9016 70.431 
-79.357 -96.7074 69.6359 -79.7099 -96.5436 69.6239 -80.5211 -96.4048 69.5879 
-83.1885 -96.4205 70.3073 -78.5855 -97.2222 69.6704 -78.2532 -97.2773 69.7588 
-79.0138 -97.0644 69.6045 -78.6465 -96.8452 69.7642 -79.4255 -97.0925 69.5072 
-82.8921 -96.9755 70.0568 -83.1462 -96.8082 70.237 -83.4206 -96.6583 70.4421 
-83.6035 -96.6321 70.5881 -83.5712 -96.4935 70.5625 -83.6788 -96.5023 70.6687 
-77.9993 -97.521 69.7828 -78.8767 -97.527 69.5254 -79.29 -97.4311 69.4556 
-79.6883 -97.3449 69.4056 -82.8746 -97.2925 70.0581 -83.3391 -97.0376 70.3935 
-83.5746 -96.8331 70.5831 -83.7239 -96.657 70.733 -76.8699 -98.5084 69.9648 
-76.6259 -98.2785 70.1603 -76.6031 -98.6297 70.0607 -77.2068 -98.3672 69.8613 
-76.9372 -98.0987 70.0548 -78.0414 -98.0355 69.6535 -77.6593 -97.7597 69.8425 
-78.4514 -98.0948 69.5284 -79.1828 -97.8318 69.4084 -82.8486 -97.6101 70.088 
-83.1288 -97.3888 70.2641 -83.3789 -97.321 70.4706 -83.5801 -97.1227 70.6389 
-83.7235 -96.8693 70.7618 -77.1125 -98.7931 69.8042 -77.4852 -98.6722 69.7044 
-78.3119 -98.4556 69.5195 -79.1043 -98.2407 69.3832 -82.8382 -97.8326 70.1323 
-83.0331 -97.7324 70.2633 -83.2877 -97.5934 70.459 -76.6494 -99.2905 69.8949 
-77.3736 -99.1119 69.6747 -77.7706 -99.0028 69.588 -79.0392 -98.668 69.3858 
-79.4343 -98.5072 69.3334 -81.9531 -98.6306 69.7995 -82.2182 -98.4937 69.9089 
-82.5122 -98.3017 70.0505 -82.8776 -98.0749 70.2574 -83.1713 -97.8648 70.4426 
-76.1608 -99.7803 70.0324 -76.8765 -99.6363 69.764 -77.6503 -99.4469 69.5834 
-82.1153 -98.767 69.9569 -82.4077 -98.6402 70.1127 -76.3724 -100.155 69.8834 
-77.1303 -99.9846 69.6698 -77.9389 -99.7862 69.5356 -78.3665 -99.6813 69.4922 
-79.2844 -99.4581 69.4443 -80.6581 -99.4249 69.6006 -81.0653 -99.3457 69.7041 
-81.4704 -99.2208 69.8267 -81.9142 -99.0709 69.9939 -76.2289 -100.614 69.8868 
-75.8548 -100.69 70.0219 -76.6132 -100.525 69.7754 -77.4034 -100.33 69.6175 
-78.2346 -100.123 69.5342 -78.6719 -100.017 69.518 -79.1274 -99.9092 69.5179 
-79.5964 -99.8022 69.5338 -79.9971 -99.708 69.5592 -80.4036 -99.8135 69.6867 
-76.0791 -101.097 69.8941 -76.8793 -100.885 69.7117 -77.2817 -100.777 69.6516 
-77.6891 -100.667 69.6096 -78.1038 -100.558 69.5857 -78.5299 -100.452 69.5808 
-79.4343 -100.239 69.6281 -80.3485 -100.193 69.8207 -80.7395 -100.087 69.9207 
-81.1065 -99.8906 69.9903 -75.4869 -101.584 70.0354 -76.3501 -101.479 69.8116 
-77.1646 -101.23 69.6955 -77.9799 -100.988 69.6468 -78.3917 -100.877 69.6504 
-78.8168 -100.773 69.6759 -79.2577 -100.667 69.7211 -79.7077 -100.561 69.7867 
-75.2056 -102.315 70.0464 -74.9728 -102.066 70.1683 -74.9351 -102.415 70.1368 
-75.5746 -102.1 69.9587 -75.2343 -101.883 70.086 -75.943 -102.127 69.8743 
-77.0534 -101.69 69.7489 -77.8707 -101.416 69.7204 -79.0909 -101.087 69.8205 
-79.5259 -100.966 69.8928 -79.9445 -100.856 69.9824 -75.0909 -102.797 70.0465 
-74.759 -102.698 70.1788 -75.8224 -102.514 69.8941 -76.1778 -102.41 69.8493 
-77.3601 -102.013 69.8082 -78.1787 -101.688 69.8214 -78.5127 -101.526 69.8312 
-78.9119 -101.541 69.936 -79.7813 -101.231 70.1082 -74.5217 -103.363 70.2156 
-74.3311 -103.152 70.3364 -74.3154 -103.466 70.316 -74.8158 -103.187 70.1124 
-74.5424 -102.972 70.2427 -75.116 -103.235 70.0183 -75.3838 -103.091 69.9662 
-76.0806 -102.842 69.8847 -76.4413 -102.72 69.8692 -77.2497 -102.493 69.9022 
-78.1066 -102.114 69.9415 -78.9214 -101.911 70.0833 -79.2766 -101.769 70.1591 
-79.6223 -101.549 70.2025 -74.4495 -103.744 70.2342 -74.209 -103.767 70.367 
-74.7151 -103.657 70.1308 -75.0072 -103.583 70.0468 -75.3087 -103.509 69.9871 
-75.6311 -103.401 69.9501 -76.3555 -103.152 69.9274 -76.6819 -102.997 69.9305 
-77.5971 -102.803 70.0582 -78.0333 -102.56 70.0866 -74.3516 -104.136 70.2848 
-74.0997 -104.159 70.4239 -74.6227 -104.068 70.1708 -74.9083 -103.989 70.0861 
-75.2102 -103.911 70.0278 -75.5311 -103.823 69.9951 -75.8784 -103.721 69.9857 
-76.7021 -103.446 70.0315 -77.1048 -103.504 70.1376 -77.5263 -103.358 70.2284 
-78.3947 -102.732 70.2882 -78.6755 -102.496 70.2751 -74.2361 -104.586 70.3633 
-73.9759 -104.501 70.5056 -74.5305 -104.479 70.2302 -74.8146 -104.393 70.141 
-75.1097 -104.311 70.0823 -75.4216 -104.231 70.0525 -75.7584 -104.148 70.0504 
-76.1244 -104.05 70.0723 -76.9118 -103.86 70.1913 -73.8181 -105.041 70.6626 
-73.6968 -104.849 70.7705 -73.6975 -105.104 70.7928 -74.0238 -104.933 70.5081 
-73.8319 -104.718 70.6228 -74.2528 -104.998 70.3899 -74.4618 -104.884 70.295 
-74.729 -104.791 70.2095 -75.0159 -104.705 70.1508 -75.3121 -104.618 70.1191 
-75.628 -104.556 70.1233 -75.9833 -104.484 70.1565 -76.3633 -104.378 70.2078 
-76.7449 -104.274 70.2804 -73.7711 -105.275 70.7345 -73.6634 -105.338 70.8828 
-73.9299 -105.356 70.6249 -74.1676 -105.316 70.481 -74.4032 -105.256 70.3707 
-74.6511 -105.174 70.2897 -74.9278 -105.092 70.2346 -75.2251 -104.999 70.2027 
-75.4915 -104.883 70.187 -75.8161 -104.945 70.258 -76.5965 -104.688 70.3913 
-73.7817 -105.519 70.7739 -73.9008 -105.67 70.7035 -73.9374 -105.941 70.7522 
-74.0912 -105.715 70.6035 -74.3391 -105.614 70.4709 -74.5772 -105.528 70.3816 
-74.8344 -105.466 70.3316 -75.1331 -105.394 70.3075 -75.488 -105.274 70.3013 
-75.7948 -105.342 70.3813 -76.1187 -105.24 70.4432 -76.4448 -105.031 70.4768 
-74.1046 -106.103 70.7039 -74.2985 -105.974 70.5835 -74.5265 -105.87 70.4883 
-74.7347 -105.761 70.4224 -75.0041 -105.815 70.4383 -75.3359 -105.689 70.4203 
-75.6331 -105.625 70.4494 -74.1038 -106.408 70.8146 -73.974 -106.531 70.9558 
-74.2735 -106.305 70.704 -74.4844 -106.207 70.6126 -74.7496 -106.102 70.5419 
-74.9983 -106.169 70.5702 -75.2625 -106.085 70.5714 -75.5062 -105.905 70.5367 
-74.1021 -106.637 70.9199 -74.023 -106.792 71.0629 -74.2435 -106.589 70.8371 
-74.4338 -106.517 70.7531 -74.648 -106.438 70.6871 -74.8738 -106.409 70.6711 
-74.1905 -106.831 70.9936 -74.3838 -106.799 70.9164 -74.5928 -106.723 70.8419 
-74.7729 -106.633 70.7829 -80.7884 -94.8473 70.3492 -80.6502 -95.257 70.106 
-78.9367 -95.7923 70.1626 -79.6662 -95.5435 70.0917 -80.0897 -95.5134 70.0211 
-83.042 -95.5473 70.5026 -78.6532 -96.541 69.875 -83.5053 -95.9896 70.6195 
-78.1787 -96.7814 69.9503 -77.9566 -97.0246 69.9581 -83.5259 -96.1676 70.581 
-83.799 -96.4139 70.84 -83.9036 -96.6711 71.0133 -76.3749 -98.0093 70.4289 
-76.6952 -97.907 70.2555 -77.3806 -97.4942 70.0417 -83.5144 -97.4402 70.6477 
-83.6789 -97.2847 70.7956 -83.7851 -97.0436 70.8876 -76.1408 -98.9808 70.2344 
-83.4484 -97.7836 70.7267 -75.9803 -99.4041 70.2183 -82.713 -98.4763 70.2865 
-82.9613 -98.3415 70.4463 -83.1687 -98.113 70.5572 -82.5929 -98.8614 70.4012 
-75.6607 -100.293 70.1948 -81.6761 -99.4644 70.0662 -81.9774 -99.3638 70.2 
-82.2376 -99.1588 70.2769 -75.3427 -101.191 70.1632 -80.8126 -100.372 70.0984 
-81.098 -100.175 70.149 -75.2122 -101.531 70.152 -80.3332 -100.75 70.0822 
-74.8307 -101.884 70.2787 -74.6801 -102.201 70.3072 -74.9922 -101.704 70.2295 
-74.5293 -102.619 70.3034 -80.0402 -101.517 70.417 -74.2108 -102.996 70.4423 
-74.1006 -103.303 70.4918 -74.339 -102.811 70.3864 -79.0965 -102.109 70.2459 
-73.9788 -103.794 70.5292 -73.8884 -104.166 70.5724 -77.6138 -103.756 70.4081 
-78.819 -102.77 70.5185 -73.8174 -104.432 70.6221 -77.1154 -104.174 70.3693 
-73.5754 -105.007 70.9768 -73.7031 -104.543 70.7459 -76.9671 -104.571 70.4832 
-73.6707 -105.655 70.9461 -73.7952 -105.802 70.8293 -73.8132 -106.081 70.906 
-75.9242 -105.596 70.5225 -76.4491 -105.36 70.6369 -75.7569 -105.908 70.6159 
-73.8642 -106.693 71.1475 -75.1136 -106.401 70.6962 -75.3427 -106.382 70.7391 
-75.5488 -106.185 70.6942 -73.9348 -106.964 71.2449 -74.9753 -106.67 70.8291 
-74.102 -107.059 71.1901 -74.315 -107.071 71.1118 -74.5497 -107.018 71.0386 
-74.7871 -106.89 70.9519 -81.722 -93.9912 70.958 -81.6296 -94.1952 70.792 
-82.021 -94.2083 70.8401 -82.0858 -94.0799 70.9565 -81.9851 -94.3865 70.719 
-82.2449 -94.3233 70.8399 -79.8384 -94.937 70.4149 -80.3884 -94.642 70.5219 
[...]
POINT_DATA 2422
SCALARS ImageScalars unsigned_short
LOOKUP_TABLE default
8 8 8 8 8 8 8 8 8 
8 8 8 8 8 8 8 8 8 
8 8 8 8 8 8 8 8 8 
8 8 8 8 8 8 8 8 8 
8 8 8 8 8 8 8 8 8 
8 8 8 8 8 8 8 8 8 
8 8 8 8 8 8 8 8 8 
8 8 8 8 8 8 8 8 8 
8 8 8 8 8 8 8 8 8 
8 8 8 8 8 8 8 8 8 
8 8 8 8 8 8 8 8 8 
8 8 8 8 8 8 8 8 8 
8 8 8 8 8 8 8 8 8 
8 8 8 8 8 8 8 8 8 
8 8 8 8 8 8 8 8 8 
8 8 8 8 8 8 8 8 8 
8 8 8 8 8 8 8 8 8 
8 8 8 8 8 8 8 8 8 
8 8 8 8 8 8 8 8 8 
8 8 8 8 8 8 8 8 8 
8 8 8 8 8 8 8 8 8 
8 8 8 8 8 8 8 8 8 
8 8 8 8 8 8 8 8 8 
8 8 8 8 8 8 8 8 8 
8 8 8 8 8 8 8 8 8 
8 8 8 8 8 8 8 8 8 
8 8 8 8 8 8 8 8 8 
8 8 8 8 8 8 8 8 8 
8 8 8 8 8 8 8 8 8 
8 8 8 8 8 8 8 8 8 
8 8 8 8 8 8 8 8 8 
8 8 8 8 8 8 8 8 8 
8 8 8 8 8 8 8 8 8 
8 8 8 8 8 8 8 8 8 
8 8 8 8 8 8 8 8 8 
8 8 8 8 8 8 8 8 8 
8 8 8 8 8 8 8 8 8 
8 8 8 8 8 8 8 8 8 
8 8 8 8 8 8 8 8 8 
8 8 8 8 8 8 8 8 8 
8 8 8 8 8 8 8 8 8 
8 8 8 8 8 8 8 8 8 
8 8 8 8 8 8 8 8 8 
8 8 8 8 8 8 8 8 8 
8 8 8 8 8 8 8 8 8 
8 8 8 8 8 8 8 8 8 
8 8 8 8 8 8 8 8 8 
8 8 8 8 8 8 8 8 8 
8 8 8 8 8 8 8 8 8 
8 8 8 8 8 8 8 8 8 
8 8 8 8 8 8 8 8 8 
8 8 8 8 8 8 8 8 8 
8 8 8 8 8 8 8 8 8 
8 8 8 8 8 8 8 8 8 
8 8 8 8 8 8 8 8 8 
8 8 8 8 8 8 8 8 8 
8 8 8 8 8 8 8 8 8 
8 8 8 8 8 8 8 8 8 
8 8 8 8 8 8 8 8 8 
8 8 8 8 8 8 8 8 8 
8 8 8 8 8 8 8 8 8 
8 8 8 8 8 8 8 8 8 
8 8 8 8 8 8 8 8 8 
8 8 8 8 8 8 8 8 8 
8 8 8 8 8 8 8 8 8 
8 8 8 8 8 8 8 8 8 
8 8 8 8 8 8 8 8 8 
8 8 8 8 8 8 8 8 8 
8 8 8 8 8 8 8 8 8 
8 8 8 8 8 8 8 8 8 
8 8 8 8 8 8 8 8 8 
8 8 8 8 8 8 8 8 8 
8 8 8 8 8 8 8 8 8 
8 8 8 8 8 8 8 8 8 
8 8 8 8 8 8 8 8 8 
8 8 8 8 8 8 8 8 8 
8 8 8 8 8 8 8 8 8 
8 8 8 8 8 8 8 8 8 
8 8 8 8 8 8 8 8 8 
8 8 8 8 8 8 8 8 8 
8 8 8 8 8 8 8 8 8 
8 8 8 8 8 8 8 8 8 
8 8 8 8 8 8 8 8 8 
8 8 8 8 8 8 8 8 8 
8 8 8 8 8 8 8 8 8 
8 8 8 8 8 8 8 8 8 
8 8 8 8 8 8 8 8 8 
8 8 8 8 8 8 8 8 8 
8 8 8 8 8 8 8 8 8 
8 8 8 8 8 8 8 8 8 
8 8 8 8 8 8 8 8 8 
8 8 8 8 8 8 8 8 8 
8 8 8 8 8 8 8 8 8 
8 8 8 8 8 8 8 8 8 
8 8 8 8 8 8 8 8 8 
8 8 8 8 8 8 8 8 8 
8 8 8 8 8 8 8 8 8 
8 8 8 8 8 8 8 8 8 
8 8 8 8 8 8 8 8 8 
8 8 8 8 8 8 8 8 8 
8 8 8 8 8 8 8 8 8 
8 8 8 8 8 8 8 8 8 
8 8 8 8 8 8 8 8 8 
8 8 8 8 8 8 8 8 8 
8 8 8 8 8 8 8 8 8 
8 8 8 8 8 8 8 8 8 
8 8 8 8 8 8 8 8 8 
8 8 8 8 8 8 8 8 8 
8 8 8 8 8 8 8 8 8 
8 8 8 8 8 8 8 8 8 
8 8 8 8 8 8 8 8 8 
8 8 8 8 8 8 8 8 8 
8 8 8 8 8 8 8 8 8 
8 8 8 8 8 8 8 8 8 
8 8 8 8 8 8 8 8 8 
8 8 8 8 8 8 8 8 8 
8 8 8 8 8 8 8 8 8 
8 8 8 8 8 8 8 8 8 
8 8 8 8 8 8 8 8 8 
8 8 8 8 8 8 8 8 8 
8 8 8 8 8 8 8 8 8 
8 8 8 8 8 8 8 8 8 
8 8 8 8 8 8 8 8 8 
8 8 8 8 8 8 8 8 8 
8 8 8 8 8 8 8 8 8 
8 8 8 8 8 8 8 8 8 
8 8 8 8 8 8 8 8 8 
8 8 8 8 8 8 8 8 8 
8 8 8 8 8 8 8 8 8 
8 8 8 8 8 8 8 8 8 
8 8 8 8 8 8 8 8 8 
8 8 8 8 8 8 8 8 8 
8 8 8 8 8 8 8 8 8 
8 8 8 8 8 8 8 8 8 
8 8 8 8 8 8 8 8 8 
8 8 8 8 8 8 8 8 8 
8 8 8 8 8 8 8 8 8 
8 8 8 8 8 8 8 8 8 
8 8 8 8 8 8 8 8 8 
8 8 8 8 8 8 8 8 8 
8 8 8 8 8 8 8 8 8 
8 8 8 8 8 8 8 8 8 
8 8 8 8 8 8 8 8 8 
8 8 8 8 8 8 8 8 8 
8 8 8 8 8 8 8 8 8 
8 8 8 8 8 8 8 8 8 
8 8 8 8 8 8 8 8 8 
8 8 8 8 8 8 8 8 8 
8 8 8 8 8 8 8 8 8 
8 8 8 8 8 8 8 8 8 
8 8 8 8 8 8 8 8 8 
8 8 8 8 8 8 8 8 8 
8 8 8 8 8 8 8 8 8 
8 8 8 8 8 8 8 8 8 
8 8 8 8 8 8 8 8 8 
8 8 8 8 8 8 8 8 8 
8 8 8 8 8 8 8 8 8 
8 8 8 8 8 8 8 8 8 
8 8 8 8 8 8 8 8 8 
8 8 8 8 8 8 8 8 8 
8 8 8 8 8 8 8 8 8 
8 8 8 8 8 8 8 8 8 
8 8 8 8 8 8 8 8 8 
8 8 8 8 8 8 8 8 8 
8 8 8 8 8 8 8 8 8 
8 8 8 8 8 8 8 8 8 
8 8 8 8 8 8 8 8 8 
8 8 8 8 8 8 8 8 8 
8 8 8 8 8 8 8 8 8 
8 8 8 8 8 8 8 8 8 
8 8 8 8 8 8 8 8 8 
8 8 8 8 8 8 8 8 8 
8 8 8 8 8 8 8 8 8 
8 8 8 8 8 8 8 8 8 
8 8 8 8 8 8 8 8 8 
8 8 8 8 8 8 8 8 8 
8 8 8 8 8 8 8 8 8 
8 8 8 8 8 8 8 8 8 
8 8 8 8 8 8 8 8 8 
8 8 8 8 8 8 8 8 8 
8 8 8 8 8 8 8 8 8 
8 8 8 8 8 8 8 8 8 
8 8 8 8 8 8 8 8 8 
8 8 8 8 8 8 8 8 8 
8 8 8 8 8 8 8 8 8 
8 8 8 8 8 8 8 8 8 
8 8 8 8 8 8 8 8 8 
8 8 8 8 8 8 8 8 8 
8 8 8 8 8 8 8 8 8 
8 8 8 8 8 8 8 8 8 
8 8 8 8 8 8 8 8 8 
8 8 8 8 8 8 8 8 8 
8 8 8 8 8 8 8 8 8 
8 8 8 8 8 8 8 8 8 
8 8 8 8 8 8 8 8 8 
8 8 8 8 8 8 8 8 8 
8 8 8 8 8 8 8 8 8 
8 8 8 8 8 8 8 8 8 
8 8 8 8 8 8 8 8 8 
8 8 8 8 8 8 8 8 8 
8 8 8 8 8 8 8 8 8 
8 8 8 8 8 8 8 8 8 
8 8 8 8 8 8 8 8 8 
8 8 8 8 8 8 8 8 8 
8 8 8 8 8 8 8 8 8 
8 8 8 8 8 8 8 8 8 
8 8 8 8 8 8 8 8 8 
8 8 8 8 8 8 8 8 8 
8 8 8 8 8 8 8 8 8 
8 8 8 8 8 8 8 8 8 
8 8 8 8 8 8 8 8 8 
8 8 8 8 8 8 8 8 8 
8 8 8 8 8 8 8 8 8 
8 8 8 8 8 8 8 8 8 
8 8 8 8 8 8 8 8 8 
8 8 8 8 8 8 8 8 8 
8 8 8 8 8 8 8 8 8 
8 8 8 8 8 8 8 8 8 
8 8 8 8 8 8 8 8 8 
8 8 8 8 8 8 8 8 8 
8 8 8 8 8 8 8 8 8 
8 8 8 8 8 8 8 8 8 
8 8 8 8 8 8 8 8 8 
8 8 8 8 8 8 8 8 8 
8 8 8 8 8 8 8 8 8 
8 8 8 8 8 8 8 8 8 
8 8 8 8 8 8 8 8 8 
8 8 8 8 8 8 8 8 8 
8 8 8 8 8 8 8 8 8 
8 8 8 8 8 8 8 8 8 
8 8 8 8 8 8 8 8 8 
8 8 8 8 8 8 8 8 8 
8 8 8 8 8 8 8 8 8 
8 8 8 8 8 8 8 8 8 
8 8 8 8 8 8 8 8 8 
8 8 8 8 8 8 8 8 8 
8 8 8 8 8 8 8 8 8 
8 8 8 8 8 8 8 8 8 
8 8 8 8 8 8 8 8 8 
8 8 8 8 8 8 8 8 8 
8 8 8 8 8 8 8 8 8 
8 8 8 8 8 8 8 8 8 
8 8 8 8 8 8 8 8 8 
8 8 8 8 8 8 8 8 8 
8 8 8 8 8 8 8 8 8 
8 8 8 8 8 8 8 8 8 
8 8 8 8 8 8 8 8 8 
8 8 8 8 8 8 8 8 8 
8 8 8 8 8 8 8 8 8 
8 8 8 8 8 8 8 8 8 
8 8 8 8 8 8 8 8 8 
8 8 8 8 8 8 8 8 8 
8 8 8 8 8 8 8 8 8 
8 8 8 8 8 8 8 8 8 
8 8 8 8 8 8 8 8 8 
8 8 8 8 8 8 8 8 8 
8 8 8 8 8 8 8 8 8 
8 8 8 8 8 8 8 8 8 
8 8 8 8 8 8 8 8 8 
8 8 8 8 8 8 8 8 8 
8 8 8 8 8 8 8 8 8 
8 8 8 8 8 8 8 8 8 
8 8 8 8 8 8 8 8 8 
8 8 8 8 8 8 8 8 8 
8 8 8 8 8 8 8 8 8 
8 8 8 8 8 8 8 8 8 
8 8 8 8 8 8 8 8 8 
8 8 8 8 8 8 8 8 8 
8 8 8 8 8 8 8 8 8 
8 
METADATA
INFORMATION 0

NORMALS Normals float
-0.080503 0.339785 -0.937051 -0.0970395 0.268755 -0.958308 -0.182073 0.275664 -0.943853 
-0.286 0.263415 -0.921312 -0.222417 0.354854 -0.90808 -0.351665 0.333908 -0.87455 
-0.132976 0.180375 -0.974568 -0.0416409 0.267136 -0.962759 -0.205356 0.191722 -0.959725 
-0.358532 0.145451 -0.922116 -0.408521 0.235965 -0.88172 0.0132166 0.160705 -0.986914 
-0.107268 0.168296 -0.979883 -0.0233716 0.229821 -0.972952 -0.258254 0.0720414 -0.963387 
-0.291679 0.0975386 -0.95153 -0.116648 0.0817132 -0.989806 -0.17491 0.0640324 -0.9825 
-0.222471 0.0783848 -0.971783 -0.395576 -0.0041208 -0.918424 -0.441596 0.0422153 -0.89622 
-0.0556858 0.0396321 -0.997661 0.033078 0.0674191 -0.997176 -0.119452 0.0314468 -0.992342 
-0.269471 -0.0345627 -0.962388 -0.330275 -0.0338398 -0.943278 -0.378368 -0.032646 -0.925079 
-0.0458217 -0.0182878 -0.998782 0.0228948 -0.0122438 -0.999663 -0.197228 -0.0732545 -0.977617 
-0.239188 -0.061462 -0.969026 -0.401732 -0.126569 -0.906968 -0.472468 -0.103678 -0.875229 
0.0512981 -0.0679567 -0.996369 -0.147028 -0.0791202 -0.985963 -0.358555 -0.181866 -0.915622 
-0.493993 -0.190638 -0.848309 -0.0821214 -0.157265 -0.984136 -0.204416 -0.188055 -0.960651 
-0.284195 -0.206447 -0.936276 -0.330111 -0.231774 -0.915045 -0.223889 -0.296122 -0.92854 
-0.271549 -0.284499 -0.919414 -0.00752963 0.346664 -0.937959 -0.112918 0.377957 -0.918911 
-0.187539 0.382093 -0.904895 -0.490679 0.16924 -0.854746 0.109793 0.279793 -0.953762 
0.0337821 0.282948 -0.95854 -0.489039 0.0868412 -0.867928 0.100189 0.132062 -0.986165 
-0.492973 -0.0289552 -0.869563 0.118682 0.0702268 -0.990446 -0.50413 -0.106429 -0.857045 
-0.537729 -0.210005 -0.816545 -0.446797 -0.227094 -0.865333 0.00621847 -0.180403 -0.983573 
-0.386548 -0.330515 -0.861012 -0.118515 -0.29316 -0.948689 -0.157656 -0.304751 -0.939293 
-0.328469 -0.340092 -0.881161 -0.0532575 0.45497 -0.888913 -0.0601229 0.498715 -0.864679 
-0.178398 0.449401 -0.875336 -0.126814 0.50782 -0.852078 -0.268488 0.47021 -0.840724 
-0.0226074 0.398916 -0.916709 0.0313498 0.440601 -0.897155 -0.121333 0.41693 -0.900804 
-0.236894 0.402831 -0.884086 -0.332857 0.393269 -0.857056 0.243587 0.441563 -0.863532 
0.20994 0.368686 -0.905536 0.131578 0.36994 -0.919691 0.180107 0.424407 -0.887378 
0.0881272 0.407654 -0.908874 -0.440257 0.280877 -0.852808 -0.499851 0.269341 -0.823167 
0.195484 0.299405 -0.933886 0.154065 0.327621 -0.932163 0.0520783 0.341719 -0.938358 
-0.534587 0.143643 -0.832816 0.27308 0.246238 -0.929943 0.312483 0.255467 -0.914927 
0.219457 0.269313 -0.937715 0.268496 0.305401 -0.913586 0.172494 0.251065 -0.952477 
-0.564527 0.0141868 -0.825293 -0.564222 0.0452579 -0.824382 -0.608021 0.00517413 -0.793904 
-0.698978 -0.0349848 -0.714287 -0.63485 0.0765809 -0.768831 -0.753686 0.0619933 -0.654304 
0.320444 0.246669 -0.914587 0.225221 0.194793 -0.954637 0.178892 0.18611 -0.966106 
0.137209 0.184141 -0.973276 -0.566526 -0.0782934 -0.820316 -0.641061 -0.0732129 -0.76399 
-0.707234 -0.0888079 -0.701379 -0.79803 -0.0540425 -0.60019 0.404467 0.23243 -0.884524 
0.484979 0.279306 -0.828724 0.478408 0.243816 -0.843611 0.343804 0.218615 -0.91324 
0.415979 0.274967 -0.866807 0.285414 0.182805 -0.940809 0.349427 0.244246 -0.904568 
0.237596 0.144464 -0.960561 0.1776 0.132003 -0.975209 -0.575221 -0.159104 -0.802376 
-0.629221 -0.125361 -0.76705 -0.686945 -0.155056 -0.709974 -0.740061 -0.134573 -0.658938 
-0.796682 -0.103749 -0.595428 0.347175 0.170957 -0.922087 0.277594 0.154135 -0.948253 
0.219593 0.1051 -0.969914 0.163523 0.0512129 -0.985209 -0.584923 -0.239446 -0.774939 
-0.640604 -0.222879 -0.734814 -0.690937 -0.230623 -0.685142 0.396516 0.168126 -0.902501 
0.275928 0.111939 -0.954638 0.21315 0.0849673 -0.973318 0.130645 -0.0096325 -0.991382 
0.103893 -0.0386693 -0.993837 -0.43759 -0.326608 -0.83776 -0.531217 -0.28789 -0.796824 
-0.569377 -0.273406 -0.77528 -0.622769 -0.28977 -0.726768 -0.686932 -0.283791 -0.66902 
0.457844 0.170402 -0.872549 0.305931 0.101027 -0.946678 0.185768 0.0435032 -0.98163 
-0.52964 -0.390831 -0.752816 -0.578085 -0.362859 -0.730857 0.346819 0.104903 -0.932047 
0.224243 0.0396107 -0.973728 0.122127 -0.0152801 -0.992397 0.0533486 -0.0622628 -0.996633 
0.00332385 -0.15017 -0.988655 -0.24295 -0.366135 -0.898287 -0.321812 -0.376728 -0.868627 
-0.406167 -0.397824 -0.822657 -0.471092 -0.409191 -0.781432 0.326072 0.0915244 -0.940904 
0.401815 0.160168 -0.901605 0.234532 0.0285617 -0.971689 0.121976 -0.0353802 -0.991902 
0.0400791 -0.0981084 -0.994368 -0.0381236 -0.146227 -0.988516 -0.0514386 -0.190715 -0.980297 
-0.112588 -0.261882 -0.95851 -0.140034 -0.312548 -0.939523 -0.262849 -0.344922 -0.901077 
0.299029 0.0824253 -0.950678 0.193701 0.00138594 -0.98106 0.110857 -0.0562235 -0.992245 
0.0549222 -0.0933321 -0.994119 0.00814483 -0.116829 -0.993119 -0.07137 -0.163535 -0.983953 
-0.159947 -0.267604 -0.950161 -0.263636 -0.366375 -0.892337 -0.363473 -0.396997 -0.842781 
-0.390867 -0.424376 -0.816779 0.300945 0.1119 -0.947053 0.181182 -0.00592958 -0.983432 
0.0681632 -0.0963458 -0.993011 -0.0199136 -0.167027 -0.985751 -0.0765425 -0.204498 -0.97587 
-0.143774 -0.233286 -0.961721 -0.15544 -0.259229 -0.953225 -0.235689 -0.329115 -0.914404 
0.302922 0.0805562 -0.949605 0.423368 0.142913 -0.894615 0.396194 0.113493 -0.911126 
0.252142 0.0669297 -0.965373 0.358053 0.128529 -0.924813 0.171485 0.0242514 -0.984888 
0.0467291 -0.0946243 -0.994416 -0.0648498 -0.182781 -0.981013 -0.235649 -0.32892 -0.914484 
-0.266518 -0.376037 -0.887448 -0.321745 -0.421859 -0.847653 0.285042 0.063049 -0.956439 
0.399023 0.116812 -0.90947 0.176343 0.00130849 -0.984328 0.0580149 -0.0646863 -0.996218 
-0.100947 -0.216403 -0.971071 -0.163035 -0.28248 -0.945317 -0.163996 -0.280477 -0.945747 
-0.286692 -0.343127 -0.894467 -0.369602 -0.440989 -0.817877 0.414401 0.0593799 -0.908155 
0.529423 0.100758 -0.842353 0.521147 0.060913 -0.85129 0.331612 0.0533184 -0.941908 
0.442405 0.109199 -0.890142 0.235961 0.0145049 -0.971654 0.154913 -0.00529946 -0.987914 
0.0523733 -0.0794965 -0.995458 -0.0396086 -0.132583 -0.99038 -0.146675 -0.21563 -0.965396 
-0.208138 -0.330818 -0.920456 -0.273328 -0.369033 -0.888317 -0.364998 -0.392975 -0.844007 
-0.382794 -0.432279 -0.816458 0.42336 0.0108445 -0.905896 0.535962 0.0401105 -0.843289 
0.31855 0.0028688 -0.947902 0.232887 -0.0198419 -0.972301 0.136972 -0.0485537 -0.989384 
0.045394 -0.0814673 -0.995642 -0.0553622 -0.155261 -0.986321 -0.16356 -0.209095 -0.96412 
-0.229136 -0.297461 -0.92683 -0.240299 -0.345518 -0.907124 0.434356 -0.0243001 -0.900414 
0.53137 0.00790032 -0.847103 0.323753 -0.0432761 -0.945151 0.220821 -0.0611275 -0.973397 
0.122614 -0.0868917 -0.988643 0.0298555 -0.116364 -0.992758 -0.0614923 -0.153864 -0.986177 
-0.164101 -0.218676 -0.9619 -0.266136 -0.255762 -0.929385 -0.322222 -0.304714 -0.896283 
-0.374298 -0.441266 -0.815589 -0.337076 -0.432664 -0.836171 0.442736 -0.0590171 -0.894708 
0.553526 -0.0286912 -0.832338 0.329162 -0.0802268 -0.940859 0.216788 -0.102323 -0.970841 
0.11207 -0.125093 -0.985795 0.0112641 -0.15231 -0.988269 -0.0747836 -0.185333 -0.979826 
-0.170259 -0.227503 -0.958778 -0.262612 -0.288407 -0.920791 0.650117 -0.0815655 -0.755443 
0.773246 -0.046927 -0.632368 0.784027 -0.077153 -0.615913 0.522203 -0.0896791 -0.848093 
0.65068 -0.0520006 -0.757569 0.414524 -0.112658 -0.903039 0.316663 -0.116904 -0.941307 
0.207059 -0.141928 -0.967979 0.101617 -0.168259 -0.980491 0.00274267 -0.189496 -0.981878 
-0.0969899 -0.219441 -0.970793 -0.181962 -0.267508 -0.946218 -0.236562 -0.298453 -0.924643 
-0.276024 -0.313393 -0.908623 0.700872 -0.120674 -0.703006 0.827009 -0.115703 -0.550153 
0.555995 -0.139301 -0.819429 0.439259 -0.159866 -0.884021 0.316017 -0.173434 -0.932767 
0.19466 -0.186046 -0.963065 0.0838787 -0.212361 -0.973585 -0.0115562 -0.239206 -0.9709 
-0.0949751 -0.250069 -0.963559 -0.208794 -0.283895 -0.935847 -0.323092 -0.37777 -0.867699 
0.70621 -0.149638 -0.692009 0.579528 -0.18408 -0.79389 0.555757 -0.253553 -0.791736 
0.445799 -0.210385 -0.870058 0.327305 -0.225037 -0.917731 0.199692 -0.23531 -0.951185 
0.069381 -0.255453 -0.964329 -0.0300339 -0.280999 -0.959238 -0.127539 -0.298049 -0.945992 
-0.232474 -0.328162 -0.915568 -0.30792 -0.347424 -0.88571 -0.315395 -0.353874 -0.880511 
0.423254 -0.277202 -0.862563 0.315259 -0.277159 -0.907631 0.19521 -0.293865 -0.935701 
0.0838348 -0.297485 -0.951038 -0.0381908 -0.329453 -0.943399 -0.120439 -0.342683 -0.931699 
-0.216125 -0.36296 -0.906394 0.468553 -0.332744 -0.818376 0.612158 -0.346011 -0.711013 
0.297701 -0.344263 -0.890426 0.17811 -0.348471 -0.920242 0.0507271 -0.356806 -0.9328 
-0.0747687 -0.388156 -0.918556 -0.161624 -0.40677 -0.89912 -0.21353 -0.407465 -0.887906 
0.436737 -0.420315 -0.795359 0.524361 -0.445809 -0.725465 0.289895 -0.427296 -0.856376 
0.174143 -0.426882 -0.887381 0.0696713 -0.421434 -0.904179 -0.0510177 -0.43862 -0.897223 
0.332538 -0.50045 -0.799355 0.177642 -0.509604 -0.841871 0.0667183 -0.509922 -0.85763 
-0.0289045 -0.49983 -0.865641 0.0491648 0.529507 -0.84688 0.0388973 0.508144 -0.860393 
0.292187 0.476766 -0.829048 0.198692 0.464363 -0.863069 0.126167 0.46389 -0.876863 
-0.479667 0.345626 -0.806512 0.285684 0.383499 -0.878244 -0.57955 0.296836 -0.758953 
0.343348 0.333532 -0.877991 0.388837 0.33035 -0.860043 -0.639878 0.173849 -0.748553 
-0.79963 0.0625599 -0.597225 -0.854545 -0.071194 -0.514474 0.553915 0.318394 -0.769287 
0.494236 0.326792 -0.805567 0.401483 0.301194 -0.864924 -0.734098 -0.224565 -0.640836 
-0.789296 -0.178979 -0.587349 -0.828756 -0.126444 -0.545138 0.526812 0.233366 -0.817318 
-0.745523 -0.315691 -0.586971 0.52346 0.225892 -0.821561 -0.616473 -0.351261 -0.704682 
-0.69063 -0.349377 -0.633218 -0.706771 -0.322269 -0.629775 -0.605971 -0.443598 -0.660318 
0.492916 0.195654 -0.847793 -0.46067 -0.450483 -0.764754 -0.524082 -0.453702 -0.720758 
-0.58195 -0.43732 -0.685628 0.406259 0.177599 -0.896333 -0.433475 -0.464857 -0.772016 
-0.454513 -0.462708 -0.761131 0.446241 0.196589 -0.873053 -0.358354 -0.462745 -0.810833 
0.515541 0.196874 -0.833941 0.510445 0.181606 -0.840515 0.467141 0.206114 -0.859823 
0.491827 0.164621 -0.854989 -0.452025 -0.51624 -0.72744 0.618793 0.139991 -0.77298 
0.633331 0.106718 -0.766488 0.559341 0.163537 -0.812646 -0.374619 -0.449797 -0.810767 
0.623965 0.0744603 -0.777897 0.637516 0.0417841 -0.769303 -0.401331 -0.347305 -0.847533 
-0.418717 -0.524125 -0.741599 0.672786 0.00114193 -0.739836 -0.336317 -0.347879 -0.875141 
0.875538 -0.0511965 -0.480429 0.800789 -0.0197122 -0.598622 -0.348608 -0.404171 -0.845647 
0.820122 -0.157219 -0.550166 0.697835 -0.202118 -0.68715 0.705042 -0.254005 -0.662116 
-0.326107 -0.397938 -0.857496 -0.412569 -0.434697 -0.800516 -0.303008 -0.439605 -0.845538 
0.694185 -0.349976 -0.628987 -0.157437 -0.466504 -0.870395 -0.255127 -0.486587 -0.83555 
-0.280287 -0.477231 -0.83288 0.597564 -0.441195 -0.669526 -0.138513 -0.527669 -0.838081 
0.416688 -0.517469 -0.747393 0.21925 -0.555917 -0.801801 0.0538306 -0.569513 -0.820218 
-0.0664516 -0.568447 -0.820032 -0.106439 0.632546 -0.767175 -0.0644863 0.575797 -0.815046 
-0.187175 0.566871 -0.802261 -0.220637 0.605995 -0.764257 -0.188139 0.514106 -0.836838 
-0.283024 0.530543 -0.799013 0.174613 0.552248 -0.815189 0.105803 0.566374 -0.817329 
-0.00360322 0.551932 -0.833881 -0.359949 0.464324 -0.809222 -0.334502 0.503327 -0.796725 
-0.426505 0.484872 -0.763539 0.0987814 0.532229 -0.840818 -0.386757 0.382833 -0.838962 
-0.450964 0.411074 -0.792243 -0.503428 0.405282 -0.76309 0.366745 0.453441 -0.812336 
0.420332 0.474813 -0.773223 0.324574 0.459178 -0.826926 0.355611 0.507762 -0.784677 
0.259524 0.501626 -0.825239 -0.565803 0.337379 -0.752358 -0.652277 0.278615 -0.704917 
-0.75638 0.184375 -0.627611 -0.679844 0.289503 -0.673795 -0.800404 0.272646 -0.53387 
0.390713 0.408837 -0.82474 -0.706254 0.199914 -0.679146 -0.789325 0.114224 -0.603257 
-0.871918 0.114554 -0.476064 -0.896647 0.196854 -0.396576 0.461715 0.400493 -0.79147 
0.503659 0.444383 -0.740845 -0.831151 0.038805 -0.554692 0.451102 0.34986 -0.821039 
0.522818 0.379735 -0.763193 -0.874449 -0.0609878 -0.481268 -0.896477 -0.0158992 -0.442805 
-0.919175 0.0202776 -0.393326 0.640041 0.329542 -0.694082 0.689835 0.36902 -0.622858 
0.692458 0.321567 -0.64583 0.568341 0.32017 -0.757945 0.625999 0.365722 -0.688748 
0.577854 0.367419 -0.728758 -0.788646 -0.258083 -0.55806 -0.846935 -0.190771 -0.496294 
-0.881221 -0.130956 -0.454203 -0.904557 -0.109294 -0.412106 0.729203 0.327439 -0.600871 
0.60409 0.28573 -0.743931 -0.789179 -0.335807 -0.514227 -0.841787 -0.27774 -0.462878 
-0.88475 -0.207403 -0.417374 0.644612 0.287908 -0.708226 -0.768582 -0.359285 -0.529335 
-0.820601 -0.358367 -0.445183 -0.868135 -0.296315 -0.398169 0.726145 0.316099 -0.610569 
0.594599 0.249709 -0.764263 -0.651525 -0.431399 -0.624027 -0.725812 -0.427878 -0.538626 
-0.76905 -0.383934 -0.511036 0.645883 0.274437 -0.712404 0.565159 0.219181 -0.795333 
-0.592248 -0.481447 -0.646104 -0.672395 -0.482493 -0.561325 0.608407 0.259209 -0.750101 
0.665313 0.302514 -0.682528 -0.542795 -0.517344 -0.661611 -0.634593 -0.509833 -0.580829 
0.641091 0.29356 -0.709101 0.546828 0.236734 -0.803079 -0.520474 -0.524779 -0.673583 
-0.623421 -0.557864 -0.547845 0.571578 0.250336 -0.781429 -0.449417 -0.51525 -0.729754 
-0.503531 -0.527049 -0.684599 -0.5695 -0.553209 -0.607971 0.67724 0.212902 -0.704286 
0.782518 0.23531 -0.57645 0.59804 0.250951 -0.761165 0.686526 0.269138 -0.67546 
-0.43952 -0.523582 -0.729852 -0.584628 -0.562265 -0.584866 0.673924 0.182855 -0.715814 
0.587053 0.203846 -0.783464 -0.524862 -0.598409 -0.605331 -0.538435 -0.569386 -0.621198 
0.790322 0.140343 -0.596401 0.877151 0.0976992 -0.470171 0.708692 0.173374 -0.683883 
0.80043 0.167096 -0.575666 -0.445917 -0.492263 -0.747553 -0.495747 -0.510539 -0.702556 
-0.53145 -0.553018 -0.641664 -0.521592 -0.6011 -0.605492 0.824149 0.0837749 -0.560143 
0.705524 0.115591 -0.699196 -0.446266 -0.521736 -0.727075 0.830552 0.0596411 -0.553738 
0.904765 0.0385234 -0.424164 0.728883 0.0781262 -0.680166 -0.496808 -0.401075 -0.769624 
-0.507509 -0.523389 -0.68447 -0.514144 -0.563034 -0.64703 -0.558069 -0.56345 -0.609166 
0.853864 0.00802569 -0.520435 0.896351 -0.0273861 -0.442498 0.762732 0.0428237 -0.645296 
-0.405947 -0.413926 -0.814784 -0.486667 -0.434702 -0.757753 -0.504469 -0.450356 -0.736675 
-0.493537 -0.475745 -0.728072 0.908124 -0.0949047 -0.407803 -0.445194 -0.479866 -0.755996 
0.859874 -0.162466 -0.483964 -0.402832 -0.470532 -0.785065 -0.463736 -0.470461 -0.750744 
-0.557851 -0.558306 -0.614082 0.884862 -0.173345 -0.432402 0.787801 -0.254036 -0.561102 
-0.366942 -0.499703 -0.784634 0.816312 -0.267281 -0.51205 0.851063 -0.229989 -0.472014 
-0.24255 -0.53479 -0.809425 -0.357983 -0.538982 -0.762461 -0.45979 -0.527756 -0.714189 