# vtk DataFile Version 4.2
3D Slicer output. SPACE=RAS
ASCII
DATASET POLYDATA
POINTS 6587 float
-76.311 -98.8017 49.83 -76.2379 -98.7044 49.9118 -76.1557 -98.8316 49.8158 
-76.4317 -98.7651 49.8601 -76.3784 -98.7056 49.9024 -76.4827 -98.6989 49.9253 
-76.2275 -98.9818 49.7349 -75.9966 -98.9542 49.7531 -76.4283 -98.8809 49.7986 
-76.5503 -98.7877 49.8798 -75.6824 -99.3393 49.5852 -75.5185 -99.1965 49.6734 
-75.431 -99.4152 49.576 -75.9953 -99.2072 49.6332 -75.7721 -99.0888 49.6971 
-76.259 -99.1941 49.6482 -76.4406 -99.0675 49.72 -76.5991 -98.9381 49.8115 
-75.5193 -99.6539 49.4714 -75.2156 -99.6053 49.5245 -75.8637 -99.524 49.5113 
-76.1656 -99.4279 49.561 -76.4604 -99.3286 49.6331 -76.659 -99.1341 49.7409 
-74.8171 -100.117 49.3823 -74.6295 -99.937 49.5018 -74.5263 -100.213 49.4039 
-75.192 -99.952 49.3919 -74.9319 -99.793 49.4938 -75.4985 -99.9581 49.3671 
-75.761 -99.8347 49.4082 -76.3508 -99.6331 49.5298 -76.6295 -99.562 49.6065 
-76.7849 -99.4654 49.6711 -76.889 -99.5165 49.7058 -74.6254 -100.498 49.2805 
-74.2864 -100.443 49.3718 -75.0171 -100.345 49.2803 -75.3596 -100.237 49.2921 
-75.6666 -100.144 49.3205 -75.9604 -100.04 49.3735 -76.2523 -99.9434 49.4433 
-76.7586 -99.7747 49.611 -76.9259 -99.6824 49.6996 -73.8876 -101.014 49.2599 
-73.6698 -100.846 49.3967 -73.6029 -101.141 49.2991 -74.2681 -100.837 49.2343 
-73.9837 -100.666 49.3656 -74.5971 -100.853 49.1755 -74.8918 -100.714 49.1878 
-75.2321 -100.587 49.2085 -75.5602 -100.471 49.2447 -75.8637 -100.358 49.2974 
-76.1574 -100.269 49.3674 -76.4498 -100.175 49.4572 -76.7137 -100.057 49.5608 
-76.9348 -99.939 49.6745 -73.7463 -101.363 49.1843 -73.4191 -101.43 49.2621 
-74.0885 -101.256 49.1437 -74.4401 -101.165 49.1173 -74.7788 -101.074 49.1118 
-75.117 -100.954 49.134 -75.458 -100.829 49.1756 -75.7864 -100.697 49.236 
-76.3606 -100.57 49.3885 -73.5823 -101.723 49.1284 -73.2313 -101.806 49.2061 
-73.9316 -101.636 49.0788 -74.287 -101.542 49.0542 -74.6447 -101.445 49.0513 
-75.0001 -101.334 49.0714 -75.3529 -101.209 49.1143 -75.7051 -101.076 49.1801 
-76.0805 -100.916 49.2775 -76.4076 -100.932 49.374 -76.8903 -100.536 49.599 
-73.4225 -102.105 49.0788 -73.0649 -102.199 49.1529 -73.7787 -102.016 49.0283 
-74.1375 -101.929 49.0025 -74.5046 -101.839 49.0005 -74.8769 -101.732 49.0212 
-75.2434 -101.606 49.0637 -75.6003 -101.474 49.1276 -76.2922 -101.251 49.3193 
-73.2776 -102.497 49.0374 -72.9222 -102.595 49.1082 -73.6373 -102.403 48.9886 
-73.9928 -102.31 48.9631 -74.356 -102.241 48.9607 -74.7458 -102.156 48.9828 
-75.1362 -102.02 49.0272 -75.5013 -101.876 49.0893 -75.8472 -101.744 49.1704 
-73.1489 -102.887 49.0066 -72.8056 -102.987 49.0747 -73.5076 -102.797 48.9598 
-73.8773 -102.698 48.9357 -74.197 -102.576 48.9345 -74.58 -102.641 48.9522 
-75.0363 -102.468 49.0057 -75.4219 -102.289 49.07 -75.7605 -102.127 49.1446 
-76.08 -102.012 49.2391 -73.0399 -103.258 48.9878 -72.7221 -103.371 49.0535 
-73.378 -103.187 48.9434 -73.7591 -103.114 48.9197 -74.1981 -102.991 48.921 
-74.5782 -103.074 48.9446 -74.967 -102.975 49.0003 -75.3749 -102.727 49.0727 
-75.7242 -102.515 49.1495 -75.9843 -102.328 49.2168 -72.9754 -103.616 48.98 
-72.6764 -103.746 49.0453 -73.2469 -103.498 48.9415 -73.5986 -103.563 48.9182 
-74.0224 -103.441 48.9137 -74.3971 -103.386 48.9325 -72.9341 -103.961 48.9851 
-72.6744 -104.103 49.0496 -73.2702 -103.857 48.9397 -73.5981 -103.951 48.9255 
-73.9478 -103.885 48.9304 -74.2558 -103.697 48.9342 -72.9031 -104.235 49.0032 
-72.7511 -104.433 49.0628 -73.141 -104.196 48.9661 -73.4346 -104.203 48.9476 
-73.044 -104.473 49.0136 -73.2922 -104.431 48.9809 -76.1528 -98.576 50.0583 
-76.0025 -98.7646 49.8862 -76.4218 -98.6084 50.0193 -76.6226 -98.6788 49.9987 
-75.8265 -98.9079 49.798 -76.7252 -98.8232 49.9265 -75.3897 -99.0848 49.7753 
-75.2279 -99.3222 49.6691 -75.6173 -98.9824 49.7876 -76.7775 -98.9901 49.8471 
-75.0052 -99.5417 49.599 -74.4805 -99.7919 49.6357 -74.2943 -100.101 49.5323 
-74.7511 -99.6491 49.6187 -76.7964 -99.2206 49.7478 -77.031 -99.5219 49.7979 
-74.0498 -100.376 49.4748 -73.4859 -100.698 49.5533 -73.3229 -101.072 49.4454 
-73.7732 -100.514 49.5176 -73.0684 -101.495 49.3742 -77.1293 -100.474 49.7382 
-72.8712 -101.899 49.3071 -76.6022 -101.161 49.4392 -72.7065 -102.302 49.248 
-72.5721 -102.706 49.1995 -76.4105 -101.924 49.3633 -72.4705 -103.108 49.1635 
-76.2836 -102.316 49.331 -72.4061 -103.509 49.1416 -74.7607 -103.373 48.9775 
-75.0802 -103.362 49.037 -75.3681 -103.167 49.0954 -75.7337 -102.944 49.1854 
-76.066 -102.669 49.2754 -72.3868 -103.912 49.1343 -74.584 -103.727 48.9775 
-72.4331 -104.318 49.1396 -73.7615 -104.236 48.9532 -74.0809 -104.25 48.9756 
-74.3425 -104.037 48.9786 -72.5722 -104.672 49.1467 -73.5726 -104.531 48.9941 
-72.9156 -104.785 49.0972 -73.2931 -104.741 49.0444 -75.1743 -98.7512 50.1767 
-75.1281 -98.646 50.3556 -74.968 -98.7953 50.246 -75.4228 -98.7044 50.1124 
-75.3767 -98.5861 50.2963 -75.6801 -98.6682 50.057 -75.6349 -98.5411 50.2377 
-75.9009 -98.6514 50.0125 -75.9239 -98.503 50.1907 -76.184 -98.4238 50.2361 
-76.3951 -98.4525 50.1958 -76.8695 -98.6994 50.0925 -76.6727 -98.5163 50.1875 
-77.0905 -98.67 50.2209 -76.9547 -98.5378 50.2769 -77.1444 -98.5654 50.3363 
-77.3047 -98.6378 50.3709 -77.2483 -98.5878 50.3691 -74.9421 -98.9711 50.0665 
-74.7293 -98.9288 50.2538 -75.2243 -98.8689 50.0214 -75.4579 -98.8757 49.9241 
-75.7467 -98.7982 49.9037 -76.9164 -98.9026 49.9706 -77.0817 -98.8371 50.109 
-77.2367 -98.7864 50.2368 -74.207 -99.3392 50.1659 -74.1206 -99.211 50.4028 
-73.9425 -99.4348 50.2678 -74.5638 -99.2093 50.0579 -74.424 -99.0764 50.3121 
-74.8213 -99.2213 49.8965 -75.137 -99.0938 49.8618 -77.0927 -99.0414 50.0086 
-77.26 -98.9789 50.1613 -77.39 -98.9018 50.3091 -77.4615 -98.8122 50.4432 
-73.9367 -99.6648 50.0381 -73.6595 -99.638 50.2826 -74.2865 -99.4959 49.9587 
-74.5673 -99.4996 49.8017 -74.9149 -99.3793 49.7328 -76.9016 -99.2012 49.806 
-77.2802 -99.2268 50.078 -77.5615 -99.0213 50.4373 -73.0955 -100.188 50.1707 
-72.9552 -100.049 50.4431 -72.7978 -100.322 50.2823 -73.5041 -100 50.0413 
-73.3019 -99.8563 50.3494 -73.816 -99.9945 49.8357 -74.1833 -99.811 49.7683 
-77.5064 -99.4237 50.2042 -77.6674 -99.294 50.4161 -72.8417 -100.582 50.0243 
-72.5112 -100.574 50.2914 -73.2202 -100.365 49.9298 -73.5485 -100.35 49.7382 
-73.9384 -100.184 49.6353 -77.3656 -99.9466 49.9575 -77.5689 -99.7646 50.1559 
-71.9968 -101.209 50.1598 -71.8002 -101.086 50.4348 -71.7065 -101.37 50.2608 
-72.4139 -100.98 50.0287 -72.1487 -100.843 50.3532 -72.7628 -100.954 49.8089 
-73.149 -100.739 49.7174 -77.4012 -100.343 49.9305 -77.8269 -99.9439 50.3285 
-71.8076 -101.574 50.0419 -71.4914 -101.657 50.2294 -72.1632 -101.433 49.8905 
-72.5369 -101.307 49.7333 -72.9146 -101.19 49.5868 -77.3688 -100.811 49.8749 
-77.7195 -100.595 50.1407 -77.9236 -100.293 50.3327 -71.592 -101.963 49.9707 
-71.2334 -102.028 50.1939 -71.9566 -101.843 49.794 -72.3241 -101.716 49.6411 
-72.6953 -101.599 49.5011 -76.8289 -101.412 49.5448 -77.1473 -101.217 49.7221 
-77.9674 -100.943 50.3151 -78.1189 -100.788 50.4487 -78.2305 -100.836 50.5691 
-71.3552 -102.434 49.9047 -70.971 -102.402 50.1745 -71.7695 -102.266 49.7162 
-72.1404 -102.131 49.5615 -72.506 -102.008 49.426 -76.7471 -101.817 49.5143 
-77.3915 -101.541 49.8786 -77.6251 -101.393 50.0373 -78.139 -101.217 50.4747 
-70.6604 -103.051 50.1168 -70.452 -102.865 50.3387 -70.4146 -103.174 50.2557 
-71.0091 -102.85 49.9616 -70.7077 -102.68 50.2232 -71.3442 -102.859 49.7497 
-71.6391 -102.696 49.6344 -71.9918 -102.55 49.4923 -72.3486 -102.419 49.3618 
-77.337 -101.981 49.8672 -77.9602 -101.78 50.3256 -78.1732 -101.608 50.5265 
-78.3044 -101.343 50.665 -70.564 -103.433 50.0769 -70.2687 -103.477 50.2861 
-70.8811 -103.324 49.9017 -71.2181 -103.218 49.7281 -71.5493 -103.109 49.5707 
-71.8823 -102.969 49.4352 -72.2255 -102.832 49.3094 -76.5083 -102.724 49.4705 
-76.8692 -102.508 49.6287 -77.6052 -102.263 50.0759 -70.446 -103.834 50.0779 
-70.1139 -103.891 50.3065 -70.7778 -103.753 49.8815 -71.1198 -103.648 49.7048 
-71.4647 -103.529 49.5426 -71.8039 -103.391 49.3982 -72.1377 -103.246 49.2719 
-74.968 -103.703 49.0458 -75.3414 -103.584 49.1254 -75.7122 -103.397 49.2217 
-76.1514 -103.181 49.3652 -76.5829 -103.2 49.5601 -77.3104 -102.941 49.9409 
-77.6134 -102.745 50.1343 -77.8321 -102.456 50.2706 -70.334 -104.269 50.0885 
-69.9938 -104.345 50.3107 -70.6807 -104.191 49.886 -71.0365 -104.096 49.7027 
-71.399 -103.978 49.5351 -71.7538 -103.833 49.3836 -72.0877 -103.668 49.2517 
-74.7921 -104.148 49.0695 -75.2559 -104.01 49.1594 -75.6646 -103.846 49.2631 
-76.0078 -103.645 49.3627 -76.4333 -103.673 49.5558 -76.8603 -103.461 49.7398 
-70.2402 -104.72 50.1037 -69.9104 -104.8 50.3113 -70.5909 -104.642 49.9054 
-70.9578 -104.556 49.7214 -71.3403 -104.45 49.551 -71.7323 -104.312 49.3916 
-72.0861 -104.119 49.2496 -73.9581 -104.577 49.0198 -74.4094 -104.499 49.0574 
-74.8216 -104.584 49.1436 -75.1723 -104.453 49.2078 -75.5968 -104.307 49.3149 
-76.0678 -104.112 49.4623 -76.4889 -104.137 49.6559 -76.8515 -103.952 49.8171 
-77.1219 -103.667 49.9249 -70.1618 -105.168 50.1292 -69.8401 -105.237 50.3308 
-70.5095 -105.098 49.9372 -70.8798 -105.022 49.7572 -71.2729 -104.933 49.5898 
-71.6945 -104.823 49.4314 -72.168 -104.663 49.2663 -73.7205 -104.978 49.0922 
-74.2225 -104.948 49.1195 -74.6624 -104.923 49.1794 -75.0763 -104.876 49.2631 
-75.4917 -104.767 49.3662 -75.9227 -104.631 49.4984 -76.3448 -104.519 49.6604 
-70.0923 -105.606 50.1699 -69.7788 -105.662 50.3677 -70.4351 -105.547 49.9828 
-70.8035 -105.483 49.8076 -71.1964 -105.412 49.6459 -71.6177 -105.331 49.4976 
-72.0817 -105.239 49.3596 -72.624 -105.146 49.2269 -73.2409 -105.226 49.1613 
-73.6961 -105.429 49.1912 -74.084 -105.369 49.1986 -74.5137 -105.319 49.2413 
-74.9377 -105.285 49.3214 -75.3732 -105.218 49.4291 -75.8036 -105.091 49.5513 
-76.2195 -104.963 49.6998 -70.0279 -106.028 50.2265 -69.7271 -106.069 50.418 
-70.3652 -105.987 50.0435 -70.7307 -105.936 49.8716 -71.1194 -105.878 49.7148 
[...]
POINT_DATA 6587
SCALARS ImageScalars unsigned_short
LOOKUP_TABLE default
6 6 6 6 6 6 6 6 6 
6 6 6 6 6 6 6 6 6 
6 6 6 6 6 6 6 6 6 
6 6 6 6 6 6 6 6 6 
6 6 6 6 6 6 6 6 6 
6 6 6 6 6 6 6 6 6 
6 6 6 6 6 6 6 6 6 
6 6 6 6 6 6 6 6 6 
6 6 6 6 6 6 6 6 6 
6 6 6 6 6 6 6 6 6 
6 6 6 6 6 6 6 6 6 
6 6 6 6 6 6 6 6 6 
6 6 6 6 6 6 6 6 6 
6 6 6 6 6 6 6 6 6 
6 6 6 6 6 6 6 6 6 
6 6 6 6 6 6 6 6 6 
6 6 6 6 6 6 6 6 6 
6 6 6 6 6 6 6 6 6 
6 6 6 6 6 6 6 6 6 
6 6 6 6 6 6 6 6 6 
6 6 6 6 6 6 6 6 6 
6 6 6 6 6 6 6 6 6 
6 6 6 6 6 6 6 6 6 
6 6 6 6 6 6 6 6 6 
6 6 6 6 6 6 6 6 6 
6 6 6 6 6 6 6 6 6 
6 6 6 6 6 6 6 6 6 
6 6 6 6 6 6 6 6 6 
6 6 6 6 6 6 6 6 6 
6 6 6 6 6 6 6 6 6 
6 6 6 6 6 6 6 6 6 
6 6 6 6 6 6 6 6 6 
6 6 6 6 6 6 6 6 6 
6 6 6 6 6 6 6 6 6 
6 6 6 6 6 6 6 6 6 
6 6 6 6 6 6 6 6 6 
6 6 6 6 6 6 6 6 6 
6 6 6 6 6 6 6 6 6 
6 6 6 6 6 6 6 6 6 
6 6 6 6 6 6 6 6 6 
6 6 6 6 6 6 6 6 6 
6 6 6 6 6 6 6 6 6 
6 6 6 6 6 6 6 6 6 
6 6 6 6 6 6 6 6 6 
6 6 6 6 6 6 6 6 6 
6 6 6 6 6 6 6 6 6 
6 6 6 6 6 6 6 6 6 
6 6 6 6 6 6 6 6 6 
6 6 6 6 6 6 6 6 6 
6 6 6 6 6 6 6 6 6 
6 6 6 6 6 6 6 6 6 
6 6 6 6 6 6 6 6 6 
6 6 6 6 6 6 6 6 6 
6 6 6 6 6 6 6 6 6 
6 6 6 6 6 6 6 6 6 
6 6 6 6 6 6 6 6 6 
6 6 6 6 6 6 6 6 6 
6 6 6 6 6 6 6 6 6 
6 6 6 6 6 6 6 6 6 
6 6 6 6 6 6 6 6 6 
6 6 6 6 6 6 6 6 6 
6 6 6 6 6 6 6 6 6 
6 6 6 6 6 6 6 6 6 
6 6 6 6 6 6 6 6 6 
6 6 6 6 6 6 6 6 6 
6 6 6 6 6 6 6 6 6 
6 6 6 6 6 6 6 6 6 
6 6 6 6 6 6 6 6 6 
6 6 6 6 6 6 6 6 6 
6 6 6 6 6 6 6 6 6 
6 6 6 6 6 6 6 6 6 
6 6 6 6 6 6 6 6 6 
6 6 6 6 6 6 6 6 6 
6 6 6 6 6 6 6 6 6 
6 6 6 6 6 6 6 6 6 
6 6 6 6 6 6 6 6 6 
6 6 6 6 6 6 6 6 6 
6 6 6 6 6 6 6 6 6 
6 6 6 6 6 6 6 6 6 
6 6 6 6 6 6 6 6 6 
6 6 6 6 6 6 6 6 6 
6 6 6 6 6 6 6 6 6 
6 6 6 6 6 6 6 6 6 
6 6 6 6 6 6 6 6 6 
6 6 6 6 6 6 6 6 6 
6 6 6 6 6 6 6 6 6 
6 6 6 6 6 6 6 6 6 
6 6 6 6 6 6 6 6 6 
6 6 6 6 6 6 6 6 6 
6 6 6 6 6 6 6 6 6 
6 6 6 6 6 6 6 6 6 
6 6 6 6 6 6 6 6 6 
6 6 6 6 6 6 6 6 6 
6 6 6 6 6 6 6 6 6 
6 6 6 6 6 6 6 6 6 
6 6 6 6 6 6 6 6 6 
6 6 6 6 6 6 6 6 6 
6 6 6 6 6 6 6 6 6 
6 6 6 6 6 6 6 6 6 
6 6 6 6 6 6 6 6 6 
6 6 6 6 6 6 6 6 6 
6 6 6 6 6 6 6 6 6 
6 6 6 6 6 6 6 6 6 
6 6 6 6 6 6 6 6 6 
6 6 6 6 6 6 6 6 6 
6 6 6 6 6 6 6 6 6 
6 6 6 6 6 6 6 6 6 
6 6 6 6 6 6 6 6 6 
6 6 6 6 6 6 6 6 6 
6 6 6 6 6 6 6 6 6 
6 6 6 6 6 6 6 6 6 
6 6 6 6 6 6 6 6 6 
6 6 6 6 6 6 6 6 6 
6 6 6 6 6 6 6 6 6 
6 6 6 6 6 6 6 6 6 
6 6 6 6 6 6 6 6 6 
6 6 6 6 6 6 6 6 6 
6 6 6 6 6 6 6 6 6 
6 6 6 6 6 6 6 6 6 
6 6 6 6 6 6 6 6 6 
6 6 6 6 6 6 6 6 6 
6 6 6 6 6 6 6 6 6 
6 6 6 6 6 6 6 6 6 
6 6 6 6 6 6 6 6 6 
6 6 6 6 6 6 6 6 6 
6 6 6 6 6 6 6 6 6 
6 6 6 6 6 6 6 6 6 
6 6 6 6 6 6 6 6 6 
6 6 6 6 6 6 6 6 6 
6 6 6 6 6 6 6 6 6 
6 6 6 6 6 6 6 6 6 
6 6 6 6 6 6 6 6 6 
6 6 6 6 6 6 6 6 6 
6 6 6 6 6 6 6 6 6 
6 6 6 6 6 6 6 6 6 
6 6 6 6 6 6 6 6 6 
6 6 6 6 6 6 6 6 6 
6 6 6 6 6 6 6 6 6 
6 6 6 6 6 6 6 6 6 
6 6 6 6 6 6 6 6 6 
6 6 6 6 6 6 6 6 6 
6 6 6 6 6 6 6 6 6 
6 6 6 6 6 6 6 6 6 
6 6 6 6 6 6 6 6 6 
6 6 6 6 6 6 6 6 6 
6 6 6 6 6 6 6 6 6 
6 6 6 6 6 6 6 6 6 
6 6 6 6 6 6 6 6 6 
6 6 6 6 6 6 6 6 6 
6 6 6 6 6 6 6 6 6 
6 6 6 6 6 6 6 6 6 
6 6 6 6 6 6 6 6 6 
6 6 6 6 6 6 6 6 6 
6 6 6 6 6 6 6 6 6 
6 6 6 6 6 6 6 6 6 
6 6 6 6 6 6 6 6 6 
6 6 6 6 6 6 6 6 6 
6 6 6 6 6 6 6 6 6 
6 6 6 6 6 6 6 6 6 
6 6 6 6 6 6 6 6 6 
6 6 6 6 6 6 6 6 6 
6 6 6 6 6 6 6 6 6 
6 6 6 6 6 6 6 6 6 
6 6 6 6 6 6 6 6 6 
6 6 6 6 6 6 6 6 6 
6 6 6 6 6 6 6 6 6 
6 6 6 6 6 6 6 6 6 
6 6 6 6 6 6 6 6 6 
6 6 6 6 6 6 6 6 6 
6 6 6 6 6 6 6 6 6 
6 6 6 6 6 6 6 6 6 
6 6 6 6 6 6 6 6 6 
6 6 6 6 6 6 6 6 6 
6 6 6 6 6 6 6 6 6 
6 6 6 6 6 6 6 6 6 
6 6 6 6 6 6 6 6 6 
6 6 6 6 6 6 6 6 6 
6 6 6 6 6 6 6 6 6 
6 6 6 6 6 6 6 6 6 
6 6 6 6 6 6 6 6 6 
6 6 6 6 6 6 6 6 6 
6 6 6 6 6 6 6 6 6 
6 6 6 6 6 6 6 6 6 
6 6 6 6 6 6 6 6 6 
6 6 6 6 6 6 6 6 6 
6 6 6 6 6 6 6 6 6 
6 6 6 6 6 6 6 6 6 
6 6 6 6 6 6 6 6 6 
6 6 6 6 6 6 6 6 6 
6 6 6 6 6 6 6 6 6 
6 6 6 6 6 6 6 6 6 
6 6 6 6 6 6 6 6 6 
6 6 6 6 6 6 6 6 6 
6 6 6 6 6 6 6 6 6 
6 6 6 6 6 6 6 6 6 
6 6 6 6 6 6 6 6 6 
6 6 6 6 6 6 6 6 6 
6 6 6 6 6 6 6 6 6 
6 6 6 6 6 6 6 6 6 
6 6 6 6 6 6 6 6 6 
6 6 6 6 6 6 6 6 6 
6 6 6 6 6 6 6 6 6 
6 6 6 6 6 6 6 6 6 
6 6 6 6 6 6 6 6 6 
6 6 6 6 6 6 6 6 6 
6 6 6 6 6 6 6 6 6 
6 6 6 6 6 6 6 6 6 
6 6 6 6 6 6 6 6 6 
6 6 6 6 6 6 6 6 6 
6 6 6 6 6 6 6 6 6 
6 6 6 6 6 6 6 6 6 
6 6 6 6 6 6 6 6 6 
6 6 6 6 6 6 6 6 6 
6 6 6 6 6 6 6 6 6 
6 6 6 6 6 6 6 6 6 
6 6 6 6 6 6 6 6 6 
6 6 6 6 6 6 6 6 6 
6 6 6 6 6 6 6 6 6 
6 6 6 6 6 6 6 6 6 
6 6 6 6 6 6 6 6 6 
6 6 6 6 6 6 6 6 6 
6 6 6 6 6 6 6 6 6 
6 6 6 6 6 6 6 6 6 
6 6 6 6 6 6 6 6 6 
6 6 6 6 6 6 6 6 6 
6 6 6 6 6 6 6 6 6 
6 6 6 6 6 6 6 6 6 
6 6 6 6 6 6 6 6 6 
6 6 6 6 6 6 6 6 6 
6 6 6 6 6 6 6 6 6 
6 6 6 6 6 6 6 6 6 
6 6 6 6 6 6 6 6 6 
6 6 6 6 6 6 6 6 6 
6 6 6 6 6 6 6 6 6 
6 6 6 6 6 6 6 6 6 
6 6 6 6 6 6 6 6 6 
6 6 6 6 6 6 6 6 6 
6 6 6 6 6 6 6 6 6 
6 6 6 6 6 6 6 6 6 
6 6 6 6 6 6 6 6 6 
6 6 6 6 6 6 6 6 6 
6 6 6 6 6 6 6 6 6 
6 6 6 6 6 6 6 6 6 
6 6 6 6 6 6 6 6 6 
6 6 6 6 6 6 6 6 6 
6 6 6 6 6 6 6 6 6 
6 6 6 6 6 6 6 6 6 
6 6 6 6 6 6 6 6 6 
6 6 6 6 6 6 6 6 6 
6 6 6 6 6 6 6 6 6 
6 6 6 6 6 6 6 6 6 
6 6 6 6 6 6 6 6 6 
6 6 6 6 6 6 6 6 6 
6 6 6 6 6 6 6 6 6 
6 6 6 6 6 6 6 6 6 
6 6 6 6 6 6 6 6 6 
6 6 6 6 6 6 6 6 6 
6 6 6 6 6 6 6 6 6 
6 6 6 6 6 6 6 6 6 
6 6 6 6 6 6 6 6 6 
6 6 6 6 6 6 6 6 6 
6 6 6 6 6 6 6 6 6 
6 6 6 6 6 6 6 6 6 
6 6 6 6 6 6 6 6 6 
6 6 6 6 6 6 6 6 6 
6 6 6 6 6 6 6 6 6 
6 6 6 6 6 6 6 6 6 
6 6 6 6 6 6 6 6 6 
6 6 6 6 6 6 6 6 6 
6 6 6 6 6 6 6 6 6 
6 6 6 6 6 6 6 6 6 
6 6 6 6 6 6 6 6 6 
6 6 6 6 6 6 6 6 6 
6 6 6 6 6 6 6 6 6 
6 6 6 6 6 6 6 6 6 
6 6 6 6 6 6 6 6 6 
6 6 6 6 6 6 6 6 6 
6 6 6 6 6 6 6 6 6 
6 6 6 6 6 6 6 6 6 
6 6 6 6 6 6 6 6 6 
6 6 6 6 6 6 6 6 6 
6 6 6 6 6 6 6 6 6 
6 6 6 6 6 6 6 6 6 
6 6 6 6 6 6 6 6 6 
6 6 6 6 6 6 6 6 6 
6 6 6 6 6 6 6 6 6 
6 6 6 6 6 6 6 6 6 
6 6 6 6 6 6 6 6 6 
6 6 6 6 6 6 6 6 6 
6 6 6 6 6 6 6 6 6 
6 6 6 6 6 6 6 6 6 
6 6 6 6 6 6 6 6 6 
6 6 6 6 6 6 6 6 6 
6 6 6 6 6 6 6 6 6 
6 6 6 6 6 6 6 6 6 
6 6 6 6 6 6 6 6 6 
6 6 6 6 6 6 6 6 6 
6 6 6 6 6 6 6 6 6 
6 6 6 6 6 6 6 6 6 
6 6 6 6 6 6 6 6 6 
6 6 6 6 6 6 6 6 6 
6 6 6 6 6 6 6 6 6 
6 6 6 6 6 6 6 6 6 
6 6 6 6 6 6 6 6 6 
6 6 6 6 6 6 6 6 6 
6 6 6 6 6 6 6 6 6 
6 6 6 6 6 6 6 6 6 
6 6 6 6 6 6 6 6 6 
6 6 6 6 6 6 6 6 6 
6 6 6 6 6 6 6 6 6 
6 6 6 6 6 6 6 6 6 
6 6 6 6 6 6 6 6 6 
6 6 6 6 6 6 6 6 6 
6 6 6 6 6 6 6 6 6 
6 6 6 6 6 6 6 6 6 
6 6 6 6 6 6 6 6 6 
6 6 6 6 6 6 6 6 6 
6 6 6 6 6 6 6 6 6 
6 6 6 6 6 6 6 6 6 
6 6 6 6 6 6 6 6 6 
6 6 6 6 6 6 6 6 6 
6 6 6 6 6 6 6 6 6 
6 6 6 6 6 6 6 6 6 
6 6 6 6 6 6 6 6 6 
6 6 6 6 6 6 6 6 6 
6 6 6 6 6 6 6 6 6 
6 6 6 6 6 6 6 6 6 
6 6 6 6 6 6 6 6 6 
6 6 6 6 6 6 6 6 6 
6 6 6 6 6 6 6 6 6 
6 6 6 6 6 6 6 6 6 
6 6 6 6 6 6 6 6 6 
6 6 6 6 6 6 6 6 6 
6 6 6 6 6 6 6 6 6 
6 6 6 6 6 6 6 6 6 
6 6 6 6 6 6 6 6 6 
6 6 6 6 6 6 6 6 6 
6 6 6 6 6 6 6 6 6 
6 6 6 6 6 6 6 6 6 
6 6 6 6 6 6 6 6 6 
6 6 6 6 6 6 6 6 6 
6 6 6 6 6 6 6 6 6 
6 6 6 6 6 6 6 6 6 
6 6 6 6 6 6 6 6 6 
6 6 6 6 6 6 6 6 6 
6 6 6 6 6 6 6 6 6 
6 6 6 6 6 6 6 6 6 
6 6 6 6 6 6 6 6 6 
6 6 6 6 6 6 6 6 6 
6 6 6 6 6 6 6 6 6 
6 6 6 6 6 6 6 6 6 
6 6 6 6 6 6 6 6 6 
6 6 6 6 6 6 6 6 6 
6 6 6 6 6 6 6 6 6 
6 6 6 6 6 6 6 6 6 
6 6 6 6 6 6 6 6 6 
6 6 6 6 6 6 6 6 6 
6 6 6 6 6 6 6 6 6 
6 6 6 6 6 6 6 6 6 
6 6 6 6 6 6 6 6 6 
6 6 6 6 6 6 6 6 6 
6 6 6 6 6 6 6 6 6 
6 6 6 6 6 6 6 6 6 
6 6 6 6 6 6 6 6 6 
6 6 6 6 6 6 6 6 6 
6 6 6 6 6 6 6 6 6 
6 6 6 6 6 6 6 6 6 
6 6 6 6 6 6 6 6 6 
6 6 6 6 6 6 6 6 6 
6 6 6 6 6 6 6 6 6 
6 6 6 6 6 6 6 6 6 
6 6 6 6 6 6 6 6 6 
6 6 6 6 6 6 6 6 6 
6 6 6 6 6 6 6 6 6 
6 6 6 6 6 6 6 6 6 
6 6 6 6 6 6 6 6 6 
6 6 6 6 6 6 6 6 6 
6 6 6 6 6 6 6 6 6 
6 6 6 6 6 6 6 6 6 
6 6 6 6 6 6 6 6 6 
6 6 6 6 6 6 6 6 6 
6 6 6 6 6 6 6 6 6 
6 6 6 6 6 6 6 6 6 
6 6 6 6 6 6 6 6 6 
6 6 6 6 6 6 6 6 6 
6 6 6 6 6 6 6 6 6 
6 6 6 6 6 6 6 6 6 
6 6 6 6 6 6 6 6 6 
6 6 6 6 6 6 6 6 6 
6 6 6 6 6 6 6 6 6 
6 6 6 6 6 6 6 6 6 
6 6 6 6 6 6 6 6 6 
6 6 6 6 6 6 6 6 6 
6 6 6 6 6 6 6 6 6 
6 6 6 6 6 6 6 6 6 
6 6 6 6 6 6 6 6 6 
6 6 6 6 6 6 6 6 6 
6 6 6 6 6 6 6 6 6 
6 6 6 6 6 6 6 6 6 
6 6 6 6 6 6 6 6 6 
6 6 6 6 6 6 6 6 6 
6 6 6 6 6 6 6 6 6 
6 6 6 6 6 6 6 6 6 
6 6 6 6 6 6 6 6 6 
6 6 6 6 6 6 6 6 6 
6 6 6 6 6 6 6 6 6 
6 6 6 6 6 6 6 6 6 
6 6 6 6 6 6 6 6 6 
6 6 6 6 6 6 6 6 6 
6 6 6 6 6 6 6 6 6 
6 6 6 6 6 6 6 6 6 
6 6 6 6 6 6 6 6 6 
6 6 6 6 6 6 6 6 6 
6 6 6 6 6 6 6 6 6 
6 6 6 6 6 6 6 6 6 
6 6 6 6 6 6 6 6 6 
6 6 6 6 6 6 6 6 6 
6 6 6 6 6 6 6 6 6 
6 6 6 6 6 6 6 6 6 
6 6 6 6 6 6 6 6 6 
6 6 6 6 6 6 6 6 6 
6 6 6 6 6 6 6 6 6 
6 6 6 6 6 6 6 6 6 
6 6 6 6 6 6 6 6 6 
6 6 6 6 6 6 6 6 6 
6 6 6 6 6 6 6 6 6 
6 6 6 6 6 6 6 6 6 
6 6 6 6 6 6 6 6 6 
6 6 6 6 6 6 6 6 6 
6 6 6 6 6 6 6 6 6 
6 6 6 6 6 6 6 6 6 
6 6 6 6 6 6 6 6 6 
6 6 6 6 6 6 6 6 6 
6 6 6 6 6 6 6 6 6 
6 6 6 6 6 6 6 6 6 
6 6 6 6 6 6 6 6 6 
6 6 6 6 6 6 6 6 6 
6 6 6 6 6 6 6 6 6 
6 6 6 6 6 6 6 6 6 
6 6 6 6 6 6 6 6 6 
6 6 6 6 6 6 6 6 6 
6 6 6 6 6 6 6 6 6 
6 6 6 6 6 6 6 6 6 
6 6 6 6 6 6 6 6 6 
6 6 6 6 6 6 6 6 6 
6 6 6 6 6 6 6 6 6 
6 6 6 6 6 6 6 6 6 
6 6 6 6 6 6 6 6 6 
6 6 6 6 6 6 6 6 6 
6 6 6 6 6 6 6 6 6 
6 6 6 6 6 6 6 6 6 
6 6 6 6 6 6 6 6 6 
6 6 6 6 6 6 6 6 6 
6 6 6 6 6 6 6 6 6 
6 6 6 6 6 6 6 6 6 
6 6 6 6 6 6 6 6 6 
6 6 6 6 6 6 6 6 6 
6 6 6 6 6 6 6 6 6 
6 6 6 6 6 6 6 6 6 
6 6 6 6 6 6 6 6 6 
6 6 6 6 6 6 6 6 6 
6 6 6 6 6 6 6 6 6 
6 6 6 6 6 6 6 6 6 
6 6 6 6 6 6 6 6 6 
6 6 6 6 6 6 6 6 6 
6 6 6 6 6 6 6 6 6 
6 6 6 6 6 6 6 6 6 
6 6 6 6 6 6 6 6 6 
6 6 6 6 6 6 6 6 6 
6 6 6 6 6 6 6 6 6 
6 6 6 6 6 6 6 6 6 
6 6 6 6 6 6 6 6 6 
6 6 6 6 6 6 6 6 6 
6 6 6 6 6 6 6 6 6 
6 6 6 6 6 6 6 6 6 
6 6 6 6 6 6 6 6 6 
6 6 6 6 6 6 6 6 6 
6 6 6 6 6 6 6 6 6 
6 6 6 6 6 6 6 6 6 
6 6 6 6 6 6 6 6 6 
6 6 6 6 6 6 6 6 6 
6 6 6 6 6 6 6 6 6 
6 6 6 6 6 6 6 6 6 
6 6 6 6 6 6 6 6 6 
6 6 6 6 6 6 6 6 6 
6 6 6 6 6 6 6 6 6 
6 6 6 6 6 6 6 6 6 
6 6 6 6 6 6 6 6 6 
6 6 6 6 6 6 6 6 6 
6 6 6 6 6 6 6 6 6 
6 6 6 6 6 6 6 6 6 
6 6 6 6 6 6 6 6 6 
6 6 6 6 6 6 6 6 6 
6 6 6 6 6 6 6 6 6 
6 6 6 6 6 6 6 6 6 
6 6 6 6 6 6 6 6 6 
6 6 6 6 6 6 6 6 6 
6 6 6 6 6 6 6 6 6 
6 6 6 6 6 6 6 6 6 
6 6 6 6 6 6 6 6 6 
6 6 6 6 6 6 6 6 6 
6 6 6 6 6 6 6 6 6 
6 6 6 6 6 6 6 6 6 
6 6 6 6 6 6 6 6 6 
6 6 6 6 6 6 6 6 6 
6 6 6 6 6 6 6 6 6 
6 6 6 6 6 6 6 6 6 
6 6 6 6 6 6 6 6 6 
6 6 6 6 6 6 6 6 6 
6 6 6 6 6 6 6 6 6 
6 6 6 6 6 6 6 6 6 
6 6 6 6 6 6 6 6 6 
6 6 6 6 6 6 6 6 6 
6 6 6 6 6 6 6 6 6 
6 6 6 6 6 6 6 6 6 
6 6 6 6 6 6 6 6 6 
6 6 6 6 6 6 6 6 6 
6 6 6 6 6 6 6 6 6 
6 6 6 6 6 6 6 6 6 
6 6 6 6 6 6 6 6 6 
6 6 6 6 6 6 6 6 6 
6 6 6 6 6 6 6 6 6 
6 6 6 6 6 6 6 6 6 
6 6 6 6 6 6 6 6 6 
6 6 6 6 6 6 6 6 6 
6 6 6 6 6 6 6 6 6 
6 6 6 6 6 6 6 6 6 
6 6 6 6 6 6 6 6 6 
6 6 6 6 6 6 6 6 6 
6 6 6 6 6 6 6 6 6 
6 6 6 6 6 6 6 6 6 
6 6 6 6 6 6 6 6 6 
6 6 6 6 6 6 6 6 6 
6 6 6 6 6 6 6 6 6 
6 6 6 6 6 6 6 6 6 
6 6 6 6 6 6 6 6 6 
6 6 6 6 6 6 6 6 6 
6 6 6 6 6 6 6 6 6 
6 6 6 6 6 6 6 6 6 
6 6 6 6 6 6 6 6 6 
6 6 6 6 6 6 6 6 6 
6 6 6 6 6 6 6 6 6 
6 6 6 6 6 6 6 6 6 
6 6 6 6 6 6 6 6 6 
6 6 6 6 6 6 6 6 6 
6 6 6 6 6 6 6 6 6 
6 6 6 6 6 6 6 6 6 
6 6 6 6 6 6 6 6 6 
6 6 6 6 6 6 6 6 6 
6 6 6 6 6 6 6 6 6 
6 6 6 6 6 6 6 6 6 
6 6 6 6 6 6 6 6 6 
6 6 6 6 6 6 6 6 6 
6 6 6 6 6 6 6 6 6 
6 6 6 6 6 6 6 6 6 
6 6 6 6 6 6 6 6 6 
6 6 6 6 6 6 6 6 6 
6 6 6 6 6 6 6 6 6 
6 6 6 6 6 6 6 6 6 
6 6 6 6 6 6 6 6 6 
6 6 6 6 6 6 6 6 6 
6 6 6 6 6 6 6 6 6 
6 6 6 6 6 6 6 6 6 
6 6 6 6 6 6 6 6 6 
6 6 6 6 6 6 6 6 6 
6 6 6 6 6 6 6 6 6 
6 6 6 6 6 6 6 6 6 
6 6 6 6 6 6 6 6 6 
6 6 6 6 6 6 6 6 6 
6 6 6 6 6 6 6 6 6 
6 6 6 6 6 6 6 6 6 
6 6 6 6 6 6 6 6 6 
6 6 6 6 6 6 6 6 6 
6 6 6 6 6 6 6 6 6 
6 6 6 6 6 6 6 6 6 
6 6 6 6 6 6 6 6 6 
6 6 6 6 6 6 6 6 6 
6 6 6 6 6 6 6 6 6 
6 6 6 6 6 6 6 6 6 
6 6 6 6 6 6 6 6 6 
6 6 6 6 6 6 6 6 6 
6 6 6 6 6 6 6 6 6 
6 6 6 6 6 6 6 6 6 
6 6 6 6 6 6 6 6 6 
6 6 6 6 6 6 6 6 6 
6 6 6 6 6 6 6 6 6 
6 6 6 6 6 6 6 6 6 
6 6 6 6 6 6 6 6 6 
6 6 6 6 6 6 6 6 6 
6 6 6 6 6 6 6 6 6 
6 6 6 6 6 6 6 6 6 
6 6 6 6 6 6 6 6 6 
6 6 6 6 6 6 6 6 6 
6 6 6 6 6 6 6 6 6 
6 6 6 6 6 6 6 6 6 
6 6 6 6 6 6 6 6 6 
6 6 6 6 6 6 6 6 6 
6 6 6 6 6 6 6 6 6 
6 6 6 6 6 6 6 6 6 
6 6 6 6 6 6 6 6 6 
6 6 6 6 6 6 6 6 6 
6 6 6 6 6 6 6 6 6 
6 6 6 6 6 6 6 6 6 
6 6 6 6 6 6 6 6 6 
6 6 6 6 6 6 6 6 6 
6 6 6 6 6 6 6 6 6 
6 6 6 6 6 6 6 6 6 
6 6 6 6 6 6 6 6 6 
6 6 6 6 6 6 6 6 6 
6 6 6 6 6 6 6 6 6 
6 6 6 6 6 6 6 6 6 
6 6 6 6 6 6 6 6 6 
6 6 6 6 6 6 6 6 6 
6 6 6 6 6 6 6 6 6 
6 6 6 6 6 6 6 6 6 
6 6 6 6 6 6 6 6 6 
6 6 6 6 6 6 6 6 6 
6 6 6 6 6 6 6 6 6 
6 6 6 6 6 6 6 6 6 
6 6 6 6 6 6 6 6 6 
6 6 6 6 6 6 6 6 6 
6 6 6 6 6 6 6 6 6 
6 6 6 6 6 6 6 6 6 
6 6 6 6 6 6 6 6 6 
6 6 6 6 6 6 6 6 6 
6 6 6 6 6 6 6 6 6 
6 6 6 6 6 6 6 6 6 
6 6 6 6 6 6 6 6 6 
6 6 6 6 6 6 6 6 6 
6 6 6 6 6 6 6 6 6 
6 6 6 6 6 6 6 6 6 
6 6 6 6 6 6 6 6 6 
6 6 6 6 6 6 6 6 6 
6 6 6 6 6 6 6 6 6 
6 6 6 6 6 6 6 6 6 
6 6 6 6 6 6 6 6 6 
6 6 6 6 6 6 6 6 6 
6 6 6 6 6 6 6 6 6 
6 6 6 6 6 6 6 6 6 
6 6 6 6 6 6 6 6 6 
6 6 6 6 6 6 6 6 6 
6 6 6 6 6 6 6 6 6 
6 6 6 6 6 6 6 6 6 
6 6 6 6 6 6 6 6 6 
6 6 6 6 6 6 6 6 6 
6 6 6 6 6 6 6 6 6 
6 6 6 6 6 6 6 6 6 
6 6 6 6 6 6 6 6 6 
6 6 6 6 6 6 6 6 6 
6 6 6 6 6 6 6 6 6 
6 6 6 6 6 6 6 6 6 
6 6 6 6 6 6 6 6 6 
6 6 6 6 6 6 6 6 6 
6 6 6 6 6 6 6 6 6 
6 6 6 6 6 6 6 6 6 
6 6 6 6 6 6 6 6 6 
6 6 6 6 6 6 6 6 6 
6 6 6 6 6 6 6 6 6 
6 6 6 6 6 6 6 6 6 
6 6 6 6 6 6 6 6 6 
6 6 6 6 6 6 6 6 6 
6 6 6 6 6 6 6 6 6 
6 6 6 6 6 6 6 6 6 
6 6 6 6 6 6 6 6 6 
6 6 6 6 6 6 6 6 6 
6 6 6 6 6 6 6 6 6 
6 6 6 6 6 6 6 6 6 
6 6 6 6 6 6 6 6 6 
6 6 6 6 6 6 6 6 6 
6 6 6 6 6 6 6 6 6 
6 6 6 6 6 6 6 6 6 
6 6 6 6 6 6 6 6 6 
6 6 6 6 6 6 6 6 6 
6 6 6 6 6 6 6 6 6 
6 6 6 6 6 6 6 6 6 
6 6 6 6 6 6 6 6 6 
6 6 6 6 6 6 6 6 6 
6 6 6 6 6 6 6 6 6 
6 6 6 6 6 6 6 6 6 
6 6 6 6 6 6 6 6 6 
6 6 6 6 6 6 6 6 6 
6 6 6 6 6 6 6 6 6 
6 6 6 6 6 6 6 6 6 
6 6 6 6 6 6 6 6 6 
6 6 6 6 6 6 6 6 6 
6 6 6 6 6 6 6 6 6 
6 6 6 6 6 6 6 6 6 
6 6 6 6 6 6 6 6 6 
6 6 6 6 6 6 6 6 6 
6 6 6 6 6 6 6 6 6 
6 6 6 6 6 6 6 6 6 
6 6 6 6 6 6 6 6 6 
6 6 6 6 6 6 6 6 6 
6 6 6 6 6 6 6 6 6 
6 6 6 6 6 6 6 6 6 
6 6 6 6 6 6 6 6 6 
6 6 6 6 6 6 6 6 6 
6 6 6 6 6 6 6 6 6 
6 6 6 6 6 6 6 6 6 
6 6 6 6 6 6 6 6 6 
6 6 6 6 6 6 6 6 6 
6 6 6 6 6 6 6 6 6 
6 6 6 6 6 6 6 6 6 
6 6 6 6 6 6 6 6 6 
6 6 6 6 6 6 6 6 6 
6 6 6 6 6 6 6 6 6 
6 6 6 6 6 6 6 6 6 
6 6 6 6 6 6 6 6 6 
6 6 6 6 6 6 6 6 6 
6 6 6 6 6 6 6 6 6 
6 6 6 6 6 6 6 6 6 
6 6 6 6 6 6 6 6 6 
6 6 6 6 6 6 6 6 6 
6 6 6 6 6 6 6 6 6 
6 6 6 6 6 6 6 6 6 
6 6 6 6 6 6 6 6 6 
6 6 6 6 6 6 6 6 6 
6 6 6 6 6 6 6 6 6 
6 6 6 6 6 6 6 6 6 
6 6 6 6 6 6 6 6 6 
6 6 6 6 6 6 6 6 6 
6 6 6 6 6 6 6 6 6 
6 6 6 6 6 6 6 6 6 
6 6 6 6 6 6 6 6 6 
6 6 6 6 6 6 6 6 6 
6 6 6 6 6 6 6 6 6 
6 6 6 6 6 6 6 6 6 
6 6 6 6 6 6 6 6 6 
6 6 6 6 6 6 6 6 6 
6 6 6 6 6 6 6 6 6 
6 6 6 6 6 6 6 6 6 
6 6 6 6 6 6 6 6 
METADATA
INFORMATION 0

NORMALS Normals float
-0.00928764 0.538622 -0.842497 0.0540508 0.689114 -0.722634 0.0546857 0.555608 -0.829644 
-0.139851 0.551444 -0.822406 -0.032207 0.681436 -0.731169 -0.195119 0.674969 -0.711579 
-0.0336814 0.425518 -0.904323 0.05594 0.498128 -0.865297 -0.147109 0.435704 -0.887987 
-0.271571 0.530743 -0.802846 0.0588211 0.397448 -0.915737 0.155751 0.48352 -0.861365 
0.132381 0.419831 -0.897896 -0.0024873 0.386049 -0.922475 0.0902612 0.470751 -0.877637 
-0.0875398 0.346512 -0.933952 -0.153515 0.367744 -0.917168 -0.256265 0.434849 -0.863269 
0.0564742 0.346796 -0.936239 0.149598 0.404477 -0.90223 -0.054354 0.300525 -0.952224 
-0.0883214 0.296213 -0.951029 -0.178911 0.288888 -0.940497 -0.238736 0.346559 -0.907139 
0.15999 0.352172 -0.922159 0.253774 0.427942 -0.867447 0.226991 0.378248 -0.897443 
0.099942 0.332447 -0.937812 0.193085 0.404222 -0.894049 0.0213306 0.29294 -0.955893 
-0.0436531 0.286795 -0.956997 -0.167906 0.2168 -0.961668 -0.266164 0.178256 -0.947302 
-0.289398 0.232795 -0.928469 -0.431075 0.177258 -0.884734 0.150465 0.31033 -0.938646 
0.238201 0.369488 -0.898187 0.0814776 0.284895 -0.95509 0.0186657 0.255619 -0.966597 
-0.0586865 0.2303 -0.971348 -0.132711 0.22653 -0.964921 -0.193542 0.199913 -0.960508 
-0.330486 0.136381 -0.933905 -0.497427 0.122991 -0.858743 0.241571 0.321028 -0.915742 
0.334276 0.385554 -0.860005 0.310094 0.333791 -0.890183 0.184221 0.300712 -0.935754 
0.27617 0.370438 -0.886852 0.110184 0.257089 -0.960086 0.0557465 0.243613 -0.968269 
-0.00483516 0.214993 -0.976604 -0.0714689 0.187017 -0.979754 -0.166123 0.149827 -0.974656 
-0.213332 0.137451 -0.967263 -0.299157 0.11239 -0.947562 -0.399156 0.0847058 -0.912962 
-0.48588 0.0924163 -0.869126 0.232943 0.271439 -0.933841 0.31266 0.306099 -0.899192 
0.163123 0.251784 -0.953937 0.104407 0.221781 -0.969491 0.0336366 0.193078 -0.980607 
-0.028849 0.173117 -0.984479 -0.09302 0.148818 -0.98448 -0.161341 0.129305 -0.978391 
-0.285958 0.0909091 -0.95392 0.229237 0.235837 -0.944368 0.296957 0.26875 -0.916291 
0.153534 0.207915 -0.966022 0.0856891 0.181057 -0.979733 0.0209706 0.152479 -0.988084 
-0.0447252 0.13053 -0.990435 -0.109339 0.113492 -0.987504 -0.186924 0.0864372 -0.978564 
-0.246521 0.0853478 -0.965372 -0.333711 0.0628185 -0.94058 -0.427827 0.0556547 -0.902146 
0.217852 0.19923 -0.955431 0.282741 0.226958 -0.931959 0.146592 0.171519 -0.974214 
0.0723308 0.144073 -0.98692 0.00510904 0.114766 -0.993379 -0.0562546 0.0909807 -0.994262 
-0.117966 0.0761956 -0.99009 -0.193008 0.0676319 -0.978864 -0.31832 0.0226178 -0.947713 
0.20435 0.160726 -0.965613 0.27169 0.183294 -0.944769 0.136096 0.133467 -0.981664 
0.0659417 0.110761 -0.991657 -0.00923383 0.082814 -0.996522 -0.0699161 0.0540413 -0.996088 
-0.126579 0.0375065 -0.991247 -0.186167 0.0299287 -0.982062 -0.271448 0.02923 -0.962009 
0.192715 0.122735 -0.973549 0.266309 0.136603 -0.954159 0.120915 0.096604 -0.987951 
0.0549124 0.069558 -0.996065 -0.00655798 0.0573849 -0.998331 -0.0830491 0.0267095 -0.996187 
-0.141362 0.00290039 -0.989954 -0.195618 -0.00974302 -0.980632 -0.252863 -0.0119789 -0.967428 
-0.326484 -0.00982249 -0.945152 0.19027 0.0820647 -0.978296 0.264496 0.0816711 -0.960922 
0.107876 0.0629258 -0.992171 0.0410431 0.0369143 -0.998475 -0.0292064 0.0199041 -0.999375 
-0.10727 -0.00325918 -0.994225 -0.170695 -0.0206311 -0.985108 -0.220905 -0.0421676 -0.974383 
-0.270366 -0.0563805 -0.961105 -0.318362 -0.052705 -0.946503 0.185151 0.0285555 -0.982295 
0.263191 0.0216026 -0.964502 0.114245 0.029104 -0.993026 0.0339534 -0.00112135 -0.999423 
-0.021746 -0.0151219 -0.999649 -0.0902942 -0.0316286 -0.995413 0.18021 -0.019181 -0.983441 
0.262898 -0.0508621 -0.963482 0.0906327 -0.0219246 -0.995643 0.0103907 -0.0521179 -0.998587 
-0.0452169 -0.0687128 -0.996611 -0.0839848 -0.0688023 -0.994089 0.187457 -0.091881 -0.977966 
0.228031 -0.141292 -0.963347 0.106961 -0.0815976 -0.990909 0.030002 -0.0970062 -0.994832 
0.136413 -0.167203 -0.97644 0.0594228 -0.156081 -0.985955 0.0661845 0.746945 -0.661583 
0.103945 0.647178 -0.75522 -0.0853174 0.755438 -0.649642 -0.275732 0.664396 -0.694658 
0.121036 0.570021 -0.812666 -0.341806 0.53213 -0.774601 0.240966 0.565481 -0.788775 
0.225076 0.503172 -0.834361 0.18562 0.570105 -0.800329 -0.352455 0.432058 -0.830122 
0.230277 0.471226 -0.851421 0.337493 0.49974 -0.79772 0.314482 0.455109 -0.833053 
0.290061 0.490098 -0.821991 -0.386563 0.303705 -0.870823 -0.560397 0.204179 -0.802662 
0.314248 0.430598 -0.84607 0.405849 0.442597 -0.799622 0.385216 0.387938 -0.837325 
0.36686 0.443939 -0.817516 0.365298 0.344093 -0.864961 -0.504187 0.0645815 -0.861176 
0.351714 0.296898 -0.887778 -0.407256 0.0205083 -0.913084 0.340772 0.247609 -0.906953 
0.33331 0.195245 -0.922379 -0.382544 -0.020074 -0.923719 0.32935 0.136467 -0.934294 
-0.389807 -0.0647822 -0.918615 0.327314 0.0695369 -0.942353 -0.157465 -0.0551493 -0.985983 
-0.216148 -0.0687283 -0.973939 -0.254779 -0.0666063 -0.964703 -0.304033 -0.0815862 -0.949161 
-0.351495 -0.0890337 -0.931947 0.323715 -0.0060453 -0.946135 -0.149587 -0.0946538 -0.984207 
0.301846 -0.0895264 -0.949144 -0.0354979 -0.122356 -0.991851 -0.0913616 -0.134 -0.986761 
-0.124291 -0.120327 -0.984923 0.248671 -0.164372 -0.954539 -0.00804966 -0.177984 -0.984001 
0.156873 -0.204901 -0.96613 0.0622644 -0.214802 -0.974671 0.327683 0.73631 -0.592007 
0.346706 0.805653 -0.480332 0.385591 0.734551 -0.558349 0.266549 0.736532 -0.621669 
0.287126 0.810867 -0.509954 0.214812 0.734564 -0.643639 0.233915 0.806048 -0.543664 
0.142838 0.727677 -0.670883 0.164944 0.794328 -0.584668 0.0904722 0.790952 -0.605153 
-0.0517219 0.754282 -0.65451 -0.34707 0.593806 -0.725904 -0.225262 0.710935 -0.666204 
-0.384883 0.55448 -0.737846 -0.301357 0.690819 -0.657232 -0.333763 0.717546 -0.611334 
-0.648948 0.535274 -0.540693 -0.455967 0.625161 -0.633457 0.369077 0.663394 -0.650915 
0.431028 0.710778 -0.555886 0.307389 0.670016 -0.675715 0.250752 0.651441 -0.716064 