# vtk DataFile Version 4.2
3D Slicer output. SPACE=RAS
ASCII
DATASET POLYDATA
POINTS 5951 float
-118.136 -98.6637 47.6195 -118.269 -98.6257 47.6082 -118.215 -98.5657 47.6391 
-118.29 -98.5767 47.645 -118.212 -98.7149 47.5886 -118.284 -98.7049 47.5858 
-119.085 -99.6114 47.4472 -119.009 -99.6989 47.4273 -119.158 -99.7392 47.4193 
-119.177 -99.6419 47.449 -119.141 -99.8901 47.3996 -118.957 -99.8855 47.4105 
-119.279 -99.8738 47.4199 -119.369 -99.7989 47.4737 -119.137 -100.091 47.3846 
-119.299 -100.069 47.4007 -119.449 -100.025 47.4528 -119.06 -100.435 47.3934 
-119.302 -100.278 47.3866 -119.477 -100.27 47.4257 -119.288 -100.496 47.3887 
-119.453 -100.467 47.4069 -120.173 -102.578 47.3605 -120.056 -102.459 47.3748 
-120.08 -102.609 47.3718 -120.252 -102.56 47.368 -120.179 -102.472 47.3683 
-120.267 -102.47 47.3885 -120.183 -102.686 47.3722 -120.101 -102.758 47.4012 
-120.273 -102.666 47.377 -120.355 -102.6 47.4033 -120.276 -102.805 47.408 
-120.384 -102.749 47.4191 -118.196 -98.4585 47.7219 -118.414 -98.5865 47.6913 
-118.52 -98.8181 47.6192 -118.952 -99.5088 47.4768 -119.124 -99.4855 47.5163 
-119.381 -99.6136 47.5651 -119.584 -99.9093 47.5525 -118.782 -100.289 47.4312 
-119.676 -100.242 47.5086 -119.67 -100.548 47.4639 -119.233 -100.768 47.4079 
-119.521 -100.75 47.4245 -119.88 -102.254 47.4018 -119.874 -102.548 47.4079 
-120.136 -102.278 47.4073 -120.398 -102.426 47.4537 -119.952 -102.872 47.4503 
-120.534 -102.71 47.4826 -120.229 -103.007 47.4652 -120.469 -102.946 47.4819 
-117.603 -96.9547 48.4933 -117.432 -96.8574 48.5955 -117.722 -96.9042 48.514 
-117.601 -96.8462 48.5694 -117.707 -96.8218 48.5835 -117.354 -97.1429 48.4286 
-117.837 -97.0653 48.4244 -117.869 -96.8899 48.5295 -117.562 -97.3534 48.2931 
-118.162 -97.2963 48.3313 -118.302 -97.1261 48.4487 -118.749 -97.3881 48.4181 
-118.553 -97.1875 48.4871 -118.892 -97.3685 48.4861 -118.743 -97.243 48.5165 
-118.864 -97.256 48.5681 -117.499 -97.6053 48.1885 -117.2 -97.6186 48.248 
-117.806 -97.6061 48.1595 -118.461 -97.6214 48.2155 -118.768 -97.6292 48.2909 
-119.03 -97.5949 48.4087 -119.063 -97.4104 48.5511 -118.072 -97.9153 48.018 
-118.43 -97.9414 48.0508 -119.083 -97.9191 48.2523 -119.278 -97.6267 48.5189 
-119.465 -97.7884 48.5159 -119.617 -97.8746 48.5605 -117.405 -98.1672 48.0083 
-117.087 -98.2325 48.0991 -117.653 -98.0996 47.9648 -117.965 -98.2093 47.8764 
-118.371 -98.2994 47.8575 -118.772 -98.3097 47.9569 -119.128 -98.2839 48.0903 
-119.642 -98.1629 48.3837 -119.761 -98.0794 48.5146 -117.4 -98.5279 47.9277 
-118.751 -98.7254 47.7486 -119.528 -98.6398 48.0944 -119.925 -98.3622 48.4489 
-116.999 -99.0203 48.0096 -118.779 -99.189 47.571 -119.223 -99.2085 47.6995 
-120.012 -99.0182 48.1708 -120.16 -98.7299 48.3995 -117.345 -99.3867 47.8473 
-117.729 -99.3024 47.7216 -118.461 -99.2544 47.5439 -119.715 -99.6484 47.7318 
-120.086 -99.539 47.9752 -120.411 -99.1171 48.3715 -120.643 -99.3887 48.3911 
-120.842 -99.5374 48.4678 -117.319 -99.8506 47.8354 -116.931 -99.925 47.9821 
-118.085 -99.6804 47.5985 -118.429 -99.6117 47.519 -119.902 -100.146 47.6453 
-120.498 -99.9429 48.0406 -120.783 -99.9015 48.2348 -120.981 -99.8365 48.4169 
-116.912 -100.393 47.9843 -117.698 -100.255 47.7046 -118.446 -100.038 47.5022 
-119.963 -100.566 47.5751 -120.583 -100.401 47.9226 -121.106 -100.212 48.3323 
-116.899 -100.849 47.9958 -117.678 -100.75 47.7179 -118.109 -100.682 47.5988 
-119.915 -101.004 47.5076 -120.671 -100.881 47.8322 -120.974 -100.764 48.0299 
-121.231 -100.64 48.2415 -117.228 -101.238 47.8783 -116.899 -101.269 48.0119 
-118.082 -101.209 47.6268 -118.548 -101.148 47.5229 -119.998 -101.509 47.4846 
-120.351 -101.468 47.5883 -120.749 -101.396 47.7573 -121.096 -101.265 47.9543 
-121.363 -101.098 48.1605 -116.944 -101.655 48.0193 -117.533 -101.721 47.8036 
-118.024 -101.734 47.6721 -118.995 -101.643 47.4768 -119.383 -101.585 47.4362 
-119.828 -101.853 47.4344 -120.324 -101.995 47.5099 -120.776 -101.934 47.6796 
-121.245 -101.857 47.8964 -121.537 -101.595 48.1084 -117.25 -101.892 47.9104 
-117.643 -102.472 47.8355 -117.93 -102.265 47.7362 -118.466 -102.259 47.6165 
-119.499 -102.122 47.4415 -120.757 -102.487 47.5992 -121.205 -102.396 47.7914 
-121.682 -102.026 48.0745 -121.631 -102.382 47.9806 -121.911 -102.512 48.0983 
-121.853 -102.3 48.1046 -122.025 -102.423 48.1878 -117.722 -102.848 47.8656 
-118.386 -102.833 47.6898 -118.954 -102.8 47.5841 -120.823 -103.036 47.6068 
-121.208 -102.893 47.7481 -121.582 -102.808 47.9081 -121.896 -102.764 48.0626 
-122.115 -102.68 48.2056 -118.08 -103.084 47.7947 -118.637 -103.681 47.7442 
-118.892 -103.395 47.6632 -120.012 -103.289 47.5402 -120.548 -103.349 47.5778 
-120.963 -103.479 47.6772 -121.256 -103.362 47.759 -121.597 -103.251 47.8894 
-121.916 -103.149 48.0399 -122.184 -103.037 48.2039 -118.98 -103.859 47.7066 
-118.813 -104.067 47.7717 -119.396 -103.923 47.6718 -120.431 -103.829 47.6469 
-120.888 -103.832 47.7049 -121.28 -103.796 47.7935 -121.632 -103.697 47.9049 
-121.957 -103.574 48.0402 -122.241 -103.443 48.1973 -119.163 -104.205 47.7348 
-119.484 -104.363 47.7257 -119.657 -104.686 47.772 -119.877 -104.412 47.7214 
-120.828 -104.281 47.7628 -121.256 -104.228 47.8374 -121.657 -104.151 47.9437 
-122.013 -104.023 48.0682 -122.302 -103.861 48.2042 -119.965 -104.826 47.7865 
-119.81 -105.021 47.8361 -120.337 -104.853 47.8065 -121.218 -104.675 47.8945 
-121.638 -104.605 47.9901 -122.089 -104.531 48.1325 -122.403 -104.296 48.2466 
-120.135 -105.127 47.8498 -120.433 -105.242 47.8841 -120.609 -105.521 47.9655 
-120.777 -105.234 47.92 -121.586 -105.036 48.0424 -121.99 -104.976 48.1536 
-122.488 -104.664 48.3014 -122.392 -104.967 48.2963 -122.646 -105.077 48.4218 
-122.62 -104.896 48.3827 -122.779 -104.995 48.4886 -120.897 -105.594 48.0152 
-120.788 -105.821 48.0718 -121.171 -105.514 48.0445 -121.538 -105.439 48.1111 
-121.918 -105.371 48.2045 -122.281 -105.313 48.3177 -122.583 -105.277 48.4355 
-122.818 -105.223 48.5562 -121.122 -105.848 48.1265 -121.482 -105.814 48.1935 
-121.859 -105.751 48.2802 -122.223 -105.672 48.3837 -122.544 -105.58 48.494 
-122.777 -105.472 48.5867 -117.22 -96.7337 48.7662 -117.193 -96.9358 48.5931 
-117.553 -96.7513 48.6894 -117.798 -96.7757 48.6436 -117.946 -96.8225 48.5891 
-116.981 -97.3794 48.408 -118.02 -96.8946 48.5329 -118.167 -96.9468 48.5296 
-118.371 -96.9998 48.5638 -118.647 -97.0668 48.6543 -118.966 -97.2426 48.6625 
-116.896 -97.6448 48.3335 -119.144 -97.3655 48.647 -116.819 -97.9464 48.2708 
-119.251 -97.4876 48.6097 -119.478 -97.6469 48.6752 -119.789 -97.9501 48.6627 
-119.995 -98.224 48.6055 -116.681 -98.6695 48.1861 -116.621 -99.0875 48.1649 
-120.338 -98.7211 48.5304 -116.577 -99.536 48.1526 -120.432 -98.9143 48.4942 
-120.725 -99.182 48.6108 -121.287 -100.089 48.5556 -116.553 -100.472 48.1474 
-121.589 -100.953 48.3835 -116.623 -101.39 48.1609 -121.713 -101.375 48.3012 
-121.812 -101.676 48.254 -117.022 -102.034 48.0286 -117.329 -102.258 47.9205 
-117.417 -102.622 47.9431 -121.804 -101.867 48.185 -121.98 -102.149 48.2313 
-122.232 -102.465 48.3481 -122.398 -102.869 48.3923 -117.75 -103.289 47.9483 
-118.244 -103.512 47.8181 -118.458 -103.926 47.8354 -122.493 -103.301 48.3854 
-118.664 -104.273 47.8566 -122.553 -103.716 48.3704 -118.984 -104.429 47.8145 
-119.322 -104.561 47.7815 -119.479 -104.901 47.8442 -122.602 -104.092 48.3634 
-119.654 -105.206 47.9097 -122.653 -104.351 48.3729 -119.965 -105.343 47.9169 
-120.291 -105.443 47.9315 -120.453 -105.751 48.0328 -122.623 -104.519 48.3552 
-122.76 -104.748 48.4562 -123.015 -105.008 48.676 -120.639 -106.036 48.1428 
-123.064 -105.477 48.7878 -120.986 -106.14 48.21 -121.388 -106.164 48.2861 
-121.788 -106.127 48.3742 -122.172 -106.047 48.4758 -122.526 -105.935 48.5907 
-122.836 -105.774 48.7093 -116.203 -96.8496 48.9906 -116.074 -96.7585 49.1361 
-116.025 -96.8891 49.0661 -116.441 -96.8137 48.9114 -116.279 -96.6942 49.0762 
-116.716 -96.7936 48.8321 -116.538 -96.6483 49.019 -116.975 -96.8004 48.7526 
-116.878 -96.6415 48.9377 -117.136 -96.6008 48.9448 -117.397 -96.6328 48.8846 
-117.987 -96.7652 48.6825 -117.731 -96.6747 48.8204 -118.18 -96.772 48.7288 
-118.01 -96.6921 48.8256 -118.326 -96.7882 48.7683 -118.202 -96.7188 48.829 
-118.416 -96.804 48.8176 -118.322 -96.748 48.8354 -118.393 -96.7731 48.8788 
-116.102 -97.0181 48.9441 -115.893 -97.023 49.0805 -116.339 -96.9951 48.8364 
-116.605 -96.9726 48.742 -116.887 -96.957 48.659 -118.061 -96.8456 48.5856 
-118.188 -96.857 48.6222 -118.364 -96.8817 48.6763 -118.466 -96.8754 48.7535 
-118.571 -96.8939 48.8771 -115.968 -97.2171 48.9302 -115.722 -97.22 49.1063 
-116.225 -97.2028 48.7884 -116.498 -97.1823 48.6714 -116.783 -97.1623 48.5735 
-118.91 -97.1189 48.834 -119.27 -97.3407 48.8485 -119.135 -97.235 48.8683 
-119.249 -97.2965 48.9396 -115.815 -97.4588 48.9302 -116.388 -97.4246 48.619 
-119.274 -97.4368 48.6864 -119.465 -97.4894 48.9321 -115.342 -97.7584 49.1547 
-115.964 -97.7244 48.7448 -116.586 -97.6748 48.4449 -120.051 -98.1074 48.7875 
-119.802 -97.8182 48.8698 -120.037 -97.9942 48.9187 -120.143 -98.0527 49.0036 
-115.504 -98.0538 48.939 -115.191 -98.0821 49.1499 -116.16 -98.0168 48.5571 
-120.236 -98.3868 48.7078 -120.292 -98.3076 48.8732 -115.369 -98.3723 48.945 
-115.097 -98.3985 49.1285 -115.693 -98.3825 48.7422 -116.4 -98.3337 48.3701 
-120.472 -98.5832 48.8204 -120.498 -98.4743 49.0211 -115.255 -98.6127 48.9684 
-115.061 -98.6943 49.0976 -115.534 -98.7517 48.7743 -115.931 -98.7572 48.5477 
-120.5 -98.8504 48.5949 -120.798 -98.906 48.9839 -115.266 -98.884 48.9231 
-115.475 -99.0895 48.7692 -115.533 -99.4313 48.7185 -116.235 -99.1493 48.3458 
-121.439 -99.939 48.818 -121.176 -99.4727 48.9101 -121.624 -99.9751 49.0069 
-121.471 -99.7668 48.9978 -115.854 -99.7296 48.5211 -115.555 -99.8503 48.7088 
-121.624 -100.377 48.7199 -121.797 -100.088 49.1649 -115.568 -100.297 48.7275 
-116.201 -100.095 48.3246 -121.802 -100.826 48.6408 -121.964 -100.663 48.9174 
-115.9 -100.678 48.5322 -115.587 -100.77 48.7638 -116.219 -100.571 48.3281 
[...]
POINT_DATA 5951
SCALARS ImageScalars unsigned_short
LOOKUP_TABLE default
5 5 5 5 5 5 5 5 5 
5 5 5 5 5 5 5 5 5 
5 5 5 5 5 5 5 5 5 
5 5 5 5 5 5 5 5 5 
5 5 5 5 5 5 5 5 5 
5 5 5 5 5 5 5 5 5 
5 5 5 5 5 5 5 5 5 
5 5 5 5 5 5 5 5 5 
5 5 5 5 5 5 5 5 5 
5 5 5 5 5 5 5 5 5 
5 5 5 5 5 5 5 5 5 
5 5 5 5 5 5 5 5 5 
5 5 5 5 5 5 5 5 5 
5 5 5 5 5 5 5 5 5 
5 5 5 5 5 5 5 5 5 
5 5 5 5 5 5 5 5 5 
5 5 5 5 5 5 5 5 5 
5 5 5 5 5 5 5 5 5 
5 5 5 5 5 5 5 5 5 
5 5 5 5 5 5 5 5 5 
5 5 5 5 5 5 5 5 5 
5 5 5 5 5 5 5 5 5 
5 5 5 5 5 5 5 5 5 
5 5 5 5 5 5 5 5 5 
5 5 5 5 5 5 5 5 5 
5 5 5 5 5 5 5 5 5 
5 5 5 5 5 5 5 5 5 
5 5 5 5 5 5 5 5 5 
5 5 5 5 5 5 5 5 5 
5 5 5 5 5 5 5 5 5 
5 5 5 5 5 5 5 5 5 
5 5 5 5 5 5 5 5 5 
5 5 5 5 5 5 5 5 5 
5 5 5 5 5 5 5 5 5 
5 5 5 5 5 5 5 5 5 
5 5 5 5 5 5 5 5 5 
5 5 5 5 5 5 5 5 5 
5 5 5 5 5 5 5 5 5 
5 5 5 5 5 5 5 5 5 
5 5 5 5 5 5 5 5 5 
5 5 5 5 5 5 5 5 5 
5 5 5 5 5 5 5 5 5 
5 5 5 5 5 5 5 5 5 
5 5 5 5 5 5 5 5 5 
5 5 5 5 5 5 5 5 5 
5 5 5 5 5 5 5 5 5 
5 5 5 5 5 5 5 5 5 
5 5 5 5 5 5 5 5 5 
5 5 5 5 5 5 5 5 5 
5 5 5 5 5 5 5 5 5 
5 5 5 5 5 5 5 5 5 
5 5 5 5 5 5 5 5 5 
5 5 5 5 5 5 5 5 5 
5 5 5 5 5 5 5 5 5 
5 5 5 5 5 5 5 5 5 
5 5 5 5 5 5 5 5 5 
5 5 5 5 5 5 5 5 5 
5 5 5 5 5 5 5 5 5 
5 5 5 5 5 5 5 5 5 
5 5 5 5 5 5 5 5 5 
5 5 5 5 5 5 5 5 5 
5 5 5 5 5 5 5 5 5 
5 5 5 5 5 5 5 5 5 
5 5 5 5 5 5 5 5 5 
5 5 5 5 5 5 5 5 5 
5 5 5 5 5 5 5 5 5 
5 5 5 5 5 5 5 5 5 
5 5 5 5 5 5 5 5 5 
5 5 5 5 5 5 5 5 5 
5 5 5 5 5 5 5 5 5 
5 5 5 5 5 5 5 5 5 
5 5 5 5 5 5 5 5 5 
5 5 5 5 5 5 5 5 5 
5 5 5 5 5 5 5 5 5 
5 5 5 5 5 5 5 5 5 
5 5 5 5 5 5 5 5 5 
5 5 5 5 5 5 5 5 5 
5 5 5 5 5 5 5 5 5 
5 5 5 5 5 5 5 5 5 
5 5 5 5 5 5 5 5 5 
5 5 5 5 5 5 5 5 5 
5 5 5 5 5 5 5 5 5 
5 5 5 5 5 5 5 5 5 
5 5 5 5 5 5 5 5 5 
5 5 5 5 5 5 5 5 5 
5 5 5 5 5 5 5 5 5 
5 5 5 5 5 5 5 5 5 
5 5 5 5 5 5 5 5 5 
5 5 5 5 5 5 5 5 5 
5 5 5 5 5 5 5 5 5 
5 5 5 5 5 5 5 5 5 
5 5 5 5 5 5 5 5 5 
5 5 5 5 5 5 5 5 5 
5 5 5 5 5 5 5 5 5 
5 5 5 5 5 5 5 5 5 
5 5 5 5 5 5 5 5 5 
5 5 5 5 5 5 5 5 5 
5 5 5 5 5 5 5 5 5 
5 5 5 5 5 5 5 5 5 
5 5 5 5 5 5 5 5 5 
5 5 5 5 5 5 5 5 5 
5 5 5 5 5 5 5 5 5 
5 5 5 5 5 5 5 5 5 
5 5 5 5 5 5 5 5 5 
5 5 5 5 5 5 5 5 5 
5 5 5 5 5 5 5 5 5 
5 5 5 5 5 5 5 5 5 
5 5 5 5 5 5 5 5 5 
5 5 5 5 5 5 5 5 5 
5 5 5 5 5 5 5 5 5 
5 5 5 5 5 5 5 5 5 
5 5 5 5 5 5 5 5 5 
5 5 5 5 5 5 5 5 5 
5 5 5 5 5 5 5 5 5 
5 5 5 5 5 5 5 5 5 
5 5 5 5 5 5 5 5 5 
5 5 5 5 5 5 5 5 5 
5 5 5 5 5 5 5 5 5 
5 5 5 5 5 5 5 5 5 
5 5 5 5 5 5 5 5 5 
5 5 5 5 5 5 5 5 5 
5 5 5 5 5 5 5 5 5 
5 5 5 5 5 5 5 5 5 
5 5 5 5 5 5 5 5 5 
5 5 5 5 5 5 5 5 5 
5 5 5 5 5 5 5 5 5 
5 5 5 5 5 5 5 5 5 
5 5 5 5 5 5 5 5 5 
5 5 5 5 5 5 5 5 5 
5 5 5 5 5 5 5 5 5 
5 5 5 5 5 5 5 5 5 
5 5 5 5 5 5 5 5 5 
5 5 5 5 5 5 5 5 5 
5 5 5 5 5 5 5 5 5 
5 5 5 5 5 5 5 5 5 
5 5 5 5 5 5 5 5 5 
5 5 5 5 5 5 5 5 5 
5 5 5 5 5 5 5 5 5 
5 5 5 5 5 5 5 5 5 
5 5 5 5 5 5 5 5 5 
5 5 5 5 5 5 5 5 5 
5 5 5 5 5 5 5 5 5 
5 5 5 5 5 5 5 5 5 
5 5 5 5 5 5 5 5 5 
5 5 5 5 5 5 5 5 5 
5 5 5 5 5 5 5 5 5 
5 5 5 5 5 5 5 5 5 
5 5 5 5 5 5 5 5 5 
5 5 5 5 5 5 5 5 5 
5 5 5 5 5 5 5 5 5 
5 5 5 5 5 5 5 5 5 
5 5 5 5 5 5 5 5 5 
5 5 5 5 5 5 5 5 5 
5 5 5 5 5 5 5 5 5 
5 5 5 5 5 5 5 5 5 
5 5 5 5 5 5 5 5 5 
5 5 5 5 5 5 5 5 5 
5 5 5 5 5 5 5 5 5 
5 5 5 5 5 5 5 5 5 
5 5 5 5 5 5 5 5 5 
5 5 5 5 5 5 5 5 5 
5 5 5 5 5 5 5 5 5 
5 5 5 5 5 5 5 5 5 
5 5 5 5 5 5 5 5 5 
5 5 5 5 5 5 5 5 5 
5 5 5 5 5 5 5 5 5 
5 5 5 5 5 5 5 5 5 
5 5 5 5 5 5 5 5 5 
5 5 5 5 5 5 5 5 5 
5 5 5 5 5 5 5 5 5 
5 5 5 5 5 5 5 5 5 
5 5 5 5 5 5 5 5 5 
5 5 5 5 5 5 5 5 5 
5 5 5 5 5 5 5 5 5 
5 5 5 5 5 5 5 5 5 
5 5 5 5 5 5 5 5 5 
5 5 5 5 5 5 5 5 5 
5 5 5 5 5 5 5 5 5 
5 5 5 5 5 5 5 5 5 
5 5 5 5 5 5 5 5 5 
5 5 5 5 5 5 5 5 5 
5 5 5 5 5 5 5 5 5 
5 5 5 5 5 5 5 5 5 
5 5 5 5 5 5 5 5 5 
5 5 5 5 5 5 5 5 5 
5 5 5 5 5 5 5 5 5 
5 5 5 5 5 5 5 5 5 
5 5 5 5 5 5 5 5 5 
5 5 5 5 5 5 5 5 5 
5 5 5 5 5 5 5 5 5 
5 5 5 5 5 5 5 5 5 
5 5 5 5 5 5 5 5 5 
5 5 5 5 5 5 5 5 5 
5 5 5 5 5 5 5 5 5 
5 5 5 5 5 5 5 5 5 
5 5 5 5 5 5 5 5 5 
5 5 5 5 5 5 5 5 5 
5 5 5 5 5 5 5 5 5 
5 5 5 5 5 5 5 5 5 
5 5 5 5 5 5 5 5 5 
5 5 5 5 5 5 5 5 5 
5 5 5 5 5 5 5 5 5 
5 5 5 5 5 5 5 5 5 
5 5 5 5 5 5 5 5 5 
5 5 5 5 5 5 5 5 5 
5 5 5 5 5 5 5 5 5 
5 5 5 5 5 5 5 5 5 
5 5 5 5 5 5 5 5 5 
5 5 5 5 5 5 5 5 5 
5 5 5 5 5 5 5 5 5 
5 5 5 5 5 5 5 5 5 
5 5 5 5 5 5 5 5 5 
5 5 5 5 5 5 5 5 5 
5 5 5 5 5 5 5 5 5 
5 5 5 5 5 5 5 5 5 
5 5 5 5 5 5 5 5 5 
5 5 5 5 5 5 5 5 5 
5 5 5 5 5 5 5 5 5 
5 5 5 5 5 5 5 5 5 
5 5 5 5 5 5 5 5 5 
5 5 5 5 5 5 5 5 5 
5 5 5 5 5 5 5 5 5 
5 5 5 5 5 5 5 5 5 
5 5 5 5 5 5 5 5 5 
5 5 5 5 5 5 5 5 5 
5 5 5 5 5 5 5 5 5 
5 5 5 5 5 5 5 5 5 
5 5 5 5 5 5 5 5 5 
5 5 5 5 5 5 5 5 5 
5 5 5 5 5 5 5 5 5 
5 5 5 5 5 5 5 5 5 
5 5 5 5 5 5 5 5 5 
5 5 5 5 5 5 5 5 5 
5 5 5 5 5 5 5 5 5 
5 5 5 5 5 5 5 5 5 
5 5 5 5 5 5 5 5 5 
5 5 5 5 5 5 5 5 5 
5 5 5 5 5 5 5 5 5 
5 5 5 5 5 5 5 5 5 
5 5 5 5 5 5 5 5 5 
5 5 5 5 5 5 5 5 5 
5 5 5 5 5 5 5 5 5 
5 5 5 5 5 5 5 5 5 
5 5 5 5 5 5 5 5 5 
5 5 5 5 5 5 5 5 5 
5 5 5 5 5 5 5 5 5 
5 5 5 5 5 5 5 5 5 
5 5 5 5 5 5 5 5 5 
5 5 5 5 5 5 5 5 5 
5 5 5 5 5 5 5 5 5 
5 5 5 5 5 5 5 5 5 
5 5 5 5 5 5 5 5 5 
5 5 5 5 5 5 5 5 5 
5 5 5 5 5 5 5 5 5 
5 5 5 5 5 5 5 5 5 
5 5 5 5 5 5 5 5 5 
5 5 5 5 5 5 5 5 5 
5 5 5 5 5 5 5 5 5 
5 5 5 5 5 5 5 5 5 
5 5 5 5 5 5 5 5 5 
5 5 5 5 5 5 5 5 5 
5 5 5 5 5 5 5 5 5 
5 5 5 5 5 5 5 5 5 
5 5 5 5 5 5 5 5 5 
5 5 5 5 5 5 5 5 5 
5 5 5 5 5 5 5 5 5 
5 5 5 5 5 5 5 5 5 
5 5 5 5 5 5 5 5 5 
5 5 5 5 5 5 5 5 5 
5 5 5 5 5 5 5 5 5 
5 5 5 5 5 5 5 5 5 
5 5 5 5 5 5 5 5 5 
5 5 5 5 5 5 5 5 5 
5 5 5 5 5 5 5 5 5 
5 5 5 5 5 5 5 5 5 
5 5 5 5 5 5 5 5 5 
5 5 5 5 5 5 5 5 5 
5 5 5 5 5 5 5 5 5 
5 5 5 5 5 5 5 5 5 
5 5 5 5 5 5 5 5 5 
5 5 5 5 5 5 5 5 5 
5 5 5 5 5 5 5 5 5 
5 5 5 5 5 5 5 5 5 
5 5 5 5 5 5 5 5 5 
5 5 5 5 5 5 5 5 5 
5 5 5 5 5 5 5 5 5 
5 5 5 5 5 5 5 5 5 
5 5 5 5 5 5 5 5 5 
5 5 5 5 5 5 5 5 5 
5 5 5 5 5 5 5 5 5 
5 5 5 5 5 5 5 5 5 
5 5 5 5 5 5 5 5 5 
5 5 5 5 5 5 5 5 5 
5 5 5 5 5 5 5 5 5 
5 5 5 5 5 5 5 5 5 
5 5 5 5 5 5 5 5 5 
5 5 5 5 5 5 5 5 5 
5 5 5 5 5 5 5 5 5 
5 5 5 5 5 5 5 5 5 
5 5 5 5 5 5 5 5 5 
5 5 5 5 5 5 5 5 5 
5 5 5 5 5 5 5 5 5 
5 5 5 5 5 5 5 5 5 
5 5 5 5 5 5 5 5 5 
5 5 5 5 5 5 5 5 5 
5 5 5 5 5 5 5 5 5 
5 5 5 5 5 5 5 5 5 
5 5 5 5 5 5 5 5 5 
5 5 5 5 5 5 5 5 5 
5 5 5 5 5 5 5 5 5 
5 5 5 5 5 5 5 5 5 
5 5 5 5 5 5 5 5 5 
5 5 5 5 5 5 5 5 5 
5 5 5 5 5 5 5 5 5 
5 5 5 5 5 5 5 5 5 
5 5 5 5 5 5 5 5 5 
5 5 5 5 5 5 5 5 5 
5 5 5 5 5 5 5 5 5 
5 5 5 5 5 5 5 5 5 
5 5 5 5 5 5 5 5 5 
5 5 5 5 5 5 5 5 5 
5 5 5 5 5 5 5 5 5 
5 5 5 5 5 5 5 5 5 
5 5 5 5 5 5 5 5 5 
5 5 5 5 5 5 5 5 5 
5 5 5 5 5 5 5 5 5 
5 5 5 5 5 5 5 5 5 
5 5 5 5 5 5 5 5 5 
5 5 5 5 5 5 5 5 5 
5 5 5 5 5 5 5 5 5 
5 5 5 5 5 5 5 5 5 
5 5 5 5 5 5 5 5 5 
5 5 5 5 5 5 5 5 5 
5 5 5 5 5 5 5 5 5 
5 5 5 5 5 5 5 5 5 
5 5 5 5 5 5 5 5 5 
5 5 5 5 5 5 5 5 5 
5 5 5 5 5 5 5 5 5 
5 5 5 5 5 5 5 5 5 
5 5 5 5 5 5 5 5 5 
5 5 5 5 5 5 5 5 5 
5 5 5 5 5 5 5 5 5 
5 5 5 5 5 5 5 5 5 
5 5 5 5 5 5 5 5 5 
5 5 5 5 5 5 5 5 5 
5 5 5 5 5 5 5 5 5 
5 5 5 5 5 5 5 5 5 
5 5 5 5 5 5 5 5 5 
5 5 5 5 5 5 5 5 5 
5 5 5 5 5 5 5 5 5 
5 5 5 5 5 5 5 5 5 
5 5 5 5 5 5 5 5 5 
5 5 5 5 5 5 5 5 5 
5 5 5 5 5 5 5 5 5 
5 5 5 5 5 5 5 5 5 
5 5 5 5 5 5 5 5 5 
5 5 5 5 5 5 5 5 5 
5 5 5 5 5 5 5 5 5 
5 5 5 5 5 5 5 5 5 
5 5 5 5 5 5 5 5 5 
5 5 5 5 5 5 5 5 5 
5 5 5 5 5 5 5 5 5 
5 5 5 5 5 5 5 5 5 
5 5 5 5 5 5 5 5 5 
5 5 5 5 5 5 5 5 5 
5 5 5 5 5 5 5 5 5 
5 5 5 5 5 5 5 5 5 
5 5 5 5 5 5 5 5 5 
5 5 5 5 5 5 5 5 5 
5 5 5 5 5 5 5 5 5 
5 5 5 5 5 5 5 5 5 
5 5 5 5 5 5 5 5 5 
5 5 5 5 5 5 5 5 5 
5 5 5 5 5 5 5 5 5 
5 5 5 5 5 5 5 5 5 
5 5 5 5 5 5 5 5 5 
5 5 5 5 5 5 5 5 5 
5 5 5 5 5 5 5 5 5 
5 5 5 5 5 5 5 5 5 
5 5 5 5 5 5 5 5 5 
5 5 5 5 5 5 5 5 5 
5 5 5 5 5 5 5 5 5 
5 5 5 5 5 5 5 5 5 
5 5 5 5 5 5 5 5 5 
5 5 5 5 5 5 5 5 5 
5 5 5 5 5 5 5 5 5 
5 5 5 5 5 5 5 5 5 
5 5 5 5 5 5 5 5 5 
5 5 5 5 5 5 5 5 5 
5 5 5 5 5 5 5 5 5 
5 5 5 5 5 5 5 5 5 
5 5 5 5 5 5 5 5 5 
5 5 5 5 5 5 5 5 5 
5 5 5 5 5 5 5 5 5 
5 5 5 5 5 5 5 5 5 
5 5 5 5 5 5 5 5 5 
5 5 5 5 5 5 5 5 5 
5 5 5 5 5 5 5 5 5 
5 5 5 5 5 5 5 5 5 
5 5 5 5 5 5 5 5 5 
5 5 5 5 5 5 5 5 5 
5 5 5 5 5 5 5 5 5 
5 5 5 5 5 5 5 5 5 
5 5 5 5 5 5 5 5 5 
5 5 5 5 5 5 5 5 5 
5 5 5 5 5 5 5 5 5 
5 5 5 5 5 5 5 5 5 
5 5 5 5 5 5 5 5 5 
5 5 5 5 5 5 5 5 5 
5 5 5 5 5 5 5 5 5 
5 5 5 5 5 5 5 5 5 
5 5 5 5 5 5 5 5 5 
5 5 5 5 5 5 5 5 5 
5 5 5 5 5 5 5 5 5 
5 5 5 5 5 5 5 5 5 
5 5 5 5 5 5 5 5 5 
5 5 5 5 5 5 5 5 5 
5 5 5 5 5 5 5 5 5 
5 5 5 5 5 5 5 5 5 
5 5 5 5 5 5 5 5 5 
5 5 5 5 5 5 5 5 5 
5 5 5 5 5 5 5 5 5 
5 5 5 5 5 5 5 5 5 
5 5 5 5 5 5 5 5 5 
5 5 5 5 5 5 5 5 5 
5 5 5 5 5 5 5 5 5 
5 5 5 5 5 5 5 5 5 
5 5 5 5 5 5 5 5 5 
5 5 5 5 5 5 5 5 5 
5 5 5 5 5 5 5 5 5 
5 5 5 5 5 5 5 5 5 
5 5 5 5 5 5 5 5 5 
5 5 5 5 5 5 5 5 5 
5 5 5 5 5 5 5 5 5 
5 5 5 5 5 5 5 5 5 
5 5 5 5 5 5 5 5 5 
5 5 5 5 5 5 5 5 5 
5 5 5 5 5 5 5 5 5 
5 5 5 5 5 5 5 5 5 
5 5 5 5 5 5 5 5 5 
5 5 5 5 5 5 5 5 5 
5 5 5 5 5 5 5 5 5 
5 5 5 5 5 5 5 5 5 
5 5 5 5 5 5 5 5 5 
5 5 5 5 5 5 5 5 5 
5 5 5 5 5 5 5 5 5 
5 5 5 5 5 5 5 5 5 
5 5 5 5 5 5 5 5 5 
5 5 5 5 5 5 5 5 5 
5 5 5 5 5 5 5 5 5 
5 5 5 5 5 5 5 5 5 
5 5 5 5 5 5 5 5 5 
5 5 5 5 5 5 5 5 5 
5 5 5 5 5 5 5 5 5 
5 5 5 5 5 5 5 5 5 
5 5 5 5 5 5 5 5 5 
5 5 5 5 5 5 5 5 5 
5 5 5 5 5 5 5 5 5 
5 5 5 5 5 5 5 5 5 
5 5 5 5 5 5 5 5 5 
5 5 5 5 5 5 5 5 5 
5 5 5 5 5 5 5 5 5 
5 5 5 5 5 5 5 5 5 
5 5 5 5 5 5 5 5 5 
5 5 5 5 5 5 5 5 5 
5 5 5 5 5 5 5 5 5 
5 5 5 5 5 5 5 5 5 
5 5 5 5 5 5 5 5 5 
5 5 5 5 5 5 5 5 5 
5 5 5 5 5 5 5 5 5 
5 5 5 5 5 5 5 5 5 
5 5 5 5 5 5 5 5 5 
5 5 5 5 5 5 5 5 5 
5 5 5 5 5 5 5 5 5 
5 5 5 5 5 5 5 5 5 
5 5 5 5 5 5 5 5 5 
5 5 5 5 5 5 5 5 5 
5 5 5 5 5 5 5 5 5 
5 5 5 5 5 5 5 5 5 
5 5 5 5 5 5 5 5 5 
5 5 5 5 5 5 5 5 5 
5 5 5 5 5 5 5 5 5 
5 5 5 5 5 5 5 5 5 
5 5 5 5 5 5 5 5 5 
5 5 5 5 5 5 5 5 5 
5 5 5 5 5 5 5 5 5 
5 5 5 5 5 5 5 5 5 
5 5 5 5 5 5 5 5 5 
5 5 5 5 5 5 5 5 5 
5 5 5 5 5 5 5 5 5 
5 5 5 5 5 5 5 5 5 
5 5 5 5 5 5 5 5 5 
5 5 5 5 5 5 5 5 5 
5 5 5 5 5 5 5 5 5 
5 5 5 5 5 5 5 5 5 
5 5 5 5 5 5 5 5 5 
5 5 5 5 5 5 5 5 5 
5 5 5 5 5 5 5 5 5 
5 5 5 5 5 5 5 5 5 
5 5 5 5 5 5 5 5 5 
5 5 5 5 5 5 5 5 5 
5 5 5 5 5 5 5 5 5 
5 5 5 5 5 5 5 5 5 
5 5 5 5 5 5 5 5 5 
5 5 5 5 5 5 5 5 5 
5 5 5 5 5 5 5 5 5 
5 5 5 5 5 5 5 5 5 
5 5 5 5 5 5 5 5 5 
5 5 5 5 5 5 5 5 5 
5 5 5 5 5 5 5 5 5 
5 5 5 5 5 5 5 5 5 
5 5 5 5 5 5 5 5 5 
5 5 5 5 5 5 5 5 5 
5 5 5 5 5 5 5 5 5 
5 5 5 5 5 5 5 5 5 
5 5 5 5 5 5 5 5 5 
5 5 5 5 5 5 5 5 5 
5 5 5 5 5 5 5 5 5 
5 5 5 5 5 5 5 5 5 
5 5 5 5 5 5 5 5 5 
5 5 5 5 5 5 5 5 5 
5 5 5 5 5 5 5 5 5 
5 5 5 5 5 5 5 5 5 
5 5 5 5 5 5 5 5 5 
5 5 5 5 5 5 5 5 5 
5 5 5 5 5 5 5 5 5 
5 5 5 5 5 5 5 5 5 
5 5 5 5 5 5 5 5 5 
5 5 5 5 5 5 5 5 5 
5 5 5 5 5 5 5 5 5 
5 5 5 5 5 5 5 5 5 
5 5 5 5 5 5 5 5 5 
5 5 5 5 5 5 5 5 5 
5 5 5 5 5 5 5 5 5 
5 5 5 5 5 5 5 5 5 
5 5 5 5 5 5 5 5 5 
5 5 5 5 5 5 5 5 5 
5 5 5 5 5 5 5 5 5 
5 5 5 5 5 5 5 5 5 
5 5 5 5 5 5 5 5 5 
5 5 5 5 5 5 5 5 5 
5 5 5 5 5 5 5 5 5 
5 5 5 5 5 5 5 5 5 
5 5 5 5 5 5 5 5 5 
5 5 5 5 5 5 5 5 5 
5 5 5 5 5 5 5 5 5 
5 5 5 5 5 5 5 5 5 
5 5 5 5 5 5 5 5 5 
5 5 5 5 5 5 5 5 5 
5 5 5 5 5 5 5 5 5 
5 5 5 5 5 5 5 5 5 
5 5 5 5 5 5 5 5 5 
5 5 5 5 5 5 5 5 5 
5 5 5 5 5 5 5 5 5 
5 5 5 5 5 5 5 5 5 
5 5 5 5 5 5 5 5 5 
5 5 5 5 5 5 5 5 5 
5 5 5 5 5 5 5 5 5 
5 5 5 5 5 5 5 5 5 
5 5 5 5 5 5 5 5 5 
5 5 5 5 5 5 5 5 5 
5 5 5 5 5 5 5 5 5 
5 5 5 5 5 5 5 5 5 
5 5 5 5 5 5 5 5 5 
5 5 5 5 5 5 5 5 5 
5 5 5 5 5 5 5 5 5 
5 5 5 5 5 5 5 5 5 
5 5 5 5 5 5 5 5 5 
5 5 5 5 5 5 5 5 5 
5 5 5 5 5 5 5 5 5 
5 5 5 5 5 5 5 5 5 
5 5 5 5 5 5 5 5 5 
5 5 5 5 5 5 5 5 5 
5 5 5 5 5 5 5 5 5 
5 5 5 5 5 5 5 5 5 
5 5 5 5 5 5 5 5 5 
5 5 5 5 5 5 5 5 5 
5 5 5 5 5 5 5 5 5 
5 5 5 5 5 5 5 5 5 
5 5 5 5 5 5 5 5 5 
5 5 5 5 5 5 5 5 5 
5 5 5 5 5 5 5 5 5 
5 5 5 5 5 5 5 5 5 
5 5 5 5 5 5 5 5 5 
5 5 5 5 5 5 5 5 5 
5 5 5 5 5 5 5 5 5 
5 5 5 5 5 5 5 5 5 
5 5 5 5 5 5 5 5 5 
5 5 5 5 5 5 5 5 5 
5 5 5 5 5 5 5 5 5 
5 5 5 5 5 5 5 5 5 
5 5 5 5 5 5 5 5 5 
5 5 5 5 5 5 5 5 5 
5 5 5 5 5 5 5 5 5 
5 5 5 5 5 5 5 5 5 
5 5 5 5 5 5 5 5 5 
5 5 5 5 5 5 5 5 5 
5 5 5 5 5 5 5 5 5 
5 5 5 5 5 5 5 5 5 
5 5 5 5 5 5 5 5 5 
5 5 5 5 5 5 5 5 5 
5 5 5 5 5 5 5 5 5 
5 5 5 5 5 5 5 5 5 
5 5 5 5 5 5 5 5 5 
5 5 5 5 5 5 5 5 5 
5 5 5 5 5 5 5 5 5 
5 5 5 5 5 5 5 5 5 
5 5 5 5 5 5 5 5 5 
5 5 5 5 5 5 5 5 5 
5 5 5 5 5 5 5 5 5 
5 5 5 5 5 5 5 5 5 
5 5 5 5 5 5 5 5 5 
5 5 5 5 5 5 5 5 5 
5 5 5 5 5 5 5 5 5 
5 5 5 5 5 5 5 5 5 
5 5 5 5 5 5 5 5 5 
5 5 5 5 5 5 5 5 5 
5 5 5 5 5 5 5 5 5 
5 5 5 5 5 5 5 5 5 
5 5 5 5 5 5 5 5 5 
5 5 5 5 5 5 5 5 5 
5 5 5 5 5 5 5 5 5 
5 5 5 5 5 5 5 5 5 
5 5 5 5 5 5 5 5 5 
5 5 5 5 5 5 5 5 5 
5 5 5 5 5 5 5 5 5 
5 5 5 5 5 5 5 5 5 
5 5 5 5 5 5 5 5 5 
5 5 5 5 5 5 5 5 5 
5 5 5 5 5 5 5 5 5 
5 5 5 5 5 5 5 5 5 
5 5 5 5 5 5 5 5 5 
5 5 5 5 5 5 5 5 5 
5 5 5 5 5 5 5 5 5 
5 5 5 5 5 5 5 5 5 
5 5 5 5 5 5 5 5 5 
5 5 5 5 5 5 5 5 5 
5 5 5 5 5 5 5 5 5 
5 5 5 5 5 5 5 5 5 
5 5 5 5 5 5 5 5 5 
5 5 5 5 5 5 5 5 5 
5 5 5 5 5 5 5 5 5 
5 5 5 5 5 5 5 5 5 
5 5 5 5 5 5 5 5 5 
5 5 5 5 5 5 5 5 5 
5 5 5 5 5 5 5 5 5 
5 5 5 5 5 5 5 5 5 
5 5 5 5 5 5 5 5 5 
5 5 5 5 5 5 5 5 5 
5 5 5 5 5 5 5 5 5 
5 5 5 5 5 5 5 5 5 
5 5 5 5 5 5 5 5 5 
5 5 5 5 5 5 5 5 5 
5 5 5 5 5 5 5 5 5 
5 5 5 5 5 5 5 5 5 
5 5 5 5 5 5 5 5 5 
5 5 5 5 5 5 5 5 5 
5 5 5 5 5 5 5 5 5 
5 5 5 5 5 5 5 5 5 
5 5 5 5 5 5 5 5 5 
5 5 5 5 5 5 5 5 5 
5 5 
METADATA
INFORMATION 0

NORMALS Normals float
0.292323 0.235579 -0.926849 -0.0677116 0.372678 -0.925487 0.0788659 0.520544 -0.850185 
-0.316319 0.52271 -0.791654 0.191465 0.128297 -0.973078 -0.231988 0.271842 -0.933961 
-0.0791389 0.324458 -0.942584 0.0751328 0.173163 -0.982023 -0.141647 0.207833 -0.967854 
-0.278355 0.361516 -0.889845 -0.0367057 0.101825 -0.994125 0.144766 0.083634 -0.985925 
-0.24787 0.168679 -0.953996 -0.387301 0.28375 -0.877202 0.0265771 0.0343688 -0.999056 
-0.18496 0.0970745 -0.97794 -0.365264 0.181731 -0.912993 0.0837156 -0.048407 -0.995313 
-0.0998716 0.0262006 -0.994655 -0.287394 0.100359 -0.95254 -0.0462084 -0.0410179 -0.998089 
-0.195155 0.0153417 -0.980652 -0.00249252 -0.0227374 -0.999738 0.0849809 0.0675478 -0.99409 
0.153401 -0.111864 -0.981812 -0.222059 0.0645325 -0.972895 -0.0872751 0.152492 -0.984444 
-0.308092 0.21089 -0.927688 0.0226063 -0.195034 -0.980536 0.124962 -0.248597 -0.960512 
-0.192225 -0.107247 -0.975473 -0.382126 0.0632156 -0.921946 -0.0961925 -0.256222 -0.96182 
-0.313076 -0.118035 -0.942365 -0.0367676 0.580392 -0.813507 -0.304884 0.487842 -0.817958 
-0.250097 0.30066 -0.920356 0.0270317 0.254179 -0.966779 -0.248911 0.434543 -0.865572 
-0.422996 0.402488 -0.811836 -0.453083 0.289651 -0.8431 0.176357 -0.0363671 -0.983654 
-0.399668 0.17968 -0.898877 -0.306458 0.0741983 -0.948988 0.0709145 -0.0692962 -0.995072 
-0.149598 -0.0260187 -0.988405 0.059183 0.0567571 -0.996632 0.230701 -0.121568 -0.9654 
-0.151632 0.19799 -0.968405 -0.375569 0.177801 -0.90958 0.249269 -0.240545 -0.938085 
-0.403045 0.00906176 -0.915135 -0.0201495 -0.261831 -0.964903 -0.249354 -0.182013 -0.951154 
0.110033 0.507987 -0.854308 0.166232 0.630324 -0.758326 0.0261705 0.568003 -0.822611 
0.110605 0.661216 -0.741998 0.0134897 0.722757 -0.690971 0.184918 0.460345 -0.868267 
-0.0277127 0.469543 -0.882475 -0.0367571 0.562984 -0.82565 0.064093 0.433619 -0.898814 
-0.112941 0.452963 -0.884347 -0.226629 0.510402 -0.829536 -0.279418 0.501346 -0.818888 
-0.258985 0.54146 -0.799843 -0.362533 0.549218 -0.752947 -0.32003 0.616313 -0.719541 
-0.400414 0.658675 -0.637037 0.163731 0.37895 -0.910818 0.254106 0.329071 -0.909474 
-0.0112263 0.429118 -0.903179 -0.180889 0.438084 -0.880546 -0.251698 0.449122 -0.857285 
-0.367768 0.479292 -0.796886 -0.427564 0.585963 -0.688358 -0.0282503 0.443413 -0.895872 
-0.174751 0.45226 -0.874599 -0.313867 0.432087 -0.845451 -0.468843 0.540453 -0.69864 
-0.457443 0.523944 -0.718491 -0.533401 0.556245 -0.63724 0.250097 0.256786 -0.933548 
0.338337 0.206137 -0.91817 0.138953 0.348358 -0.927005 0.109427 0.392404 -0.913261 
-0.178268 0.480753 -0.858544 -0.273399 0.412974 -0.868738 -0.338694 0.396238 -0.853395 
-0.435255 0.445351 -0.782442 -0.539547 0.509809 -0.670062 0.309764 0.220387 -0.924919 
-0.310994 0.412378 -0.856287 -0.380211 0.38781 -0.839668 -0.5139 0.435611 -0.73902 
0.362144 0.107305 -0.925925 -0.188922 0.336107 -0.922681 -0.365264 0.403758 -0.838786 
-0.455626 0.375915 -0.806903 -0.515351 0.427035 -0.743004 0.350514 0.0531579 -0.935048 
0.293087 0.0542901 -0.954543 0.118203 0.0876052 -0.989118 -0.447583 0.36424 -0.8167 
-0.451048 0.358499 -0.817334 -0.544881 0.392336 -0.741065 -0.532324 0.397616 -0.74735 
-0.630351 0.419828 -0.652994 0.330982 0.022808 -0.943361 0.390152 0.0272172 -0.920348 
0.270269 0.0408367 -0.961918 0.173554 0.0798171 -0.981585 -0.448698 0.273489 -0.850808 
-0.48476 0.324662 -0.812159 -0.537434 0.354485 -0.765183 -0.643885 0.417129 -0.641417 
0.37409 0.00180417 -0.927391 0.29195 -0.00341728 -0.956428 0.224624 0.00847478 -0.974409 
-0.400036 0.166012 -0.901339 -0.468326 0.269895 -0.841325 -0.563272 0.326754 -0.758918 
0.413689 -0.0320154 -0.909855 0.301712 -0.022668 -0.95313 0.239714 -0.0293295 -0.970401 
-0.265573 0.0740858 -0.96124 -0.411677 0.199148 -0.889304 -0.492988 0.276616 -0.824892 
-0.567496 0.324099 -0.756907 0.321954 -0.0423613 -0.945807 0.414736 -0.0500005 -0.908567 
0.238427 -0.0575826 -0.969452 0.181078 -0.05808 -0.981752 -0.168675 0.089803 -0.981572 
-0.326027 0.143104 -0.934467 -0.394262 0.175102 -0.902162 -0.458334 0.221595 -0.860712 
-0.526728 0.27997 -0.802605 0.416255 -0.0828996 -0.905461 0.302064 -0.0606625 -0.951356 
0.233392 -0.0561463 -0.97076 0.154757 -0.0611167 -0.98606 -0.0239833 0.0009756 -0.999712 
-0.0630267 0.0883074 -0.994097 -0.282019 0.143493 -0.948618 -0.365364 0.13616 -0.920853 
-0.419527 0.175427 -0.89063 -0.488004 0.248554 -0.836704 0.364307 -0.0811725 -0.927734 
0.307044 -0.116644 -0.94452 0.253253 -0.0917126 -0.963043 0.185329 -0.0839259 -0.979086 
0.111605 -0.0334708 -0.993189 -0.377106 0.0965602 -0.921123 -0.386652 0.115006 -0.915027 
-0.47014 0.202073 -0.859148 -0.421697 0.136424 -0.896415 -0.491815 0.128719 -0.861133 
-0.494639 0.190143 -0.848043 -0.573927 0.182228 -0.798374 0.315446 -0.159439 -0.935453 
0.214053 -0.114475 -0.970091 0.151196 -0.114178 -0.981888 -0.316746 -0.0460282 -0.947393 
-0.361431 0.0454319 -0.931291 -0.405256 0.0792673 -0.91076 -0.469993 0.0918265 -0.877881 
-0.57239 0.130487 -0.809532 0.277516 -0.150468 -0.948865 0.2141 -0.141625 -0.96649 
0.152588 -0.114396 -0.981647 0.119684 -0.196545 -0.973163 -0.14677 -0.170937 -0.974289 
-0.242975 -0.0905898 -0.965793 -0.32507 -0.0259713 -0.945333 -0.384982 0.0253828 -0.922575 
-0.453551 0.0619235 -0.889076 -0.544169 0.103 -0.832629 0.14617 -0.13871 -0.979486 
0.210253 -0.188094 -0.959382 0.0635758 -0.133819 -0.988964 -0.0581561 -0.16226 -0.985033 
-0.181749 -0.136483 -0.973827 -0.276577 -0.0881737 -0.956938 -0.352452 -0.0330342 -0.935247 
-0.425027 0.0203031 -0.904953 -0.511875 0.0744919 -0.855824 0.140071 -0.171214 -0.975226 
0.0742145 -0.159849 -0.984348 0.0714937 -0.198103 -0.97757 -0.0106675 -0.14657 -0.989143 
-0.127418 -0.157335 -0.979291 -0.232722 -0.127744 -0.964117 -0.313777 -0.0868901 -0.945513 
-0.386374 -0.0315145 -0.921804 -0.4735 0.0385454 -0.87995 0.00514004 -0.184822 -0.982759 
0.077426 -0.249376 -0.965307 -0.0791218 -0.164352 -0.983223 -0.188372 -0.161851 -0.968669 
-0.279136 -0.128686 -0.95159 -0.347593 -0.0883087 -0.933478 -0.426758 -0.00654215 -0.904342 
0.00283435 -0.228058 -0.973643 -0.0628049 -0.214191 -0.974771 -0.0711449 -0.263791 -0.961953 
-0.13172 -0.189217 -0.973061 -0.249432 -0.172128 -0.952972 -0.311847 -0.14979 -0.938251 
-0.414111 -0.0719473 -0.907379 -0.364082 -0.140483 -0.920711 -0.454427 -0.161145 -0.876087 
-0.457378 -0.0919025 -0.884511 -0.555978 -0.105376 -0.82449 -0.13535 -0.25215 -0.958176 
-0.0848494 -0.319096 -0.943916 -0.193564 -0.216818 -0.95683 -0.245226 -0.218894 -0.944431 
-0.29623 -0.204316 -0.933008 -0.350269 -0.198264 -0.915425 -0.424727 -0.199982 -0.882958 
-0.546281 -0.166701 -0.820846 -0.165665 -0.297498 -0.940239 -0.228269 -0.272296 -0.934745 
-0.286113 -0.255999 -0.923365 -0.346531 -0.246137 -0.90517 -0.416656 -0.241002 -0.876537 
-0.502593 -0.21504 -0.837352 0.12223 0.736292 -0.665532 0.201367 0.549133 -0.811113 
0.0675731 0.803128 -0.591962 -0.0192877 0.808381 -0.588344 -0.0639175 0.739531 -0.670081 
0.260179 0.408339 -0.874967 -0.0997162 0.539854 -0.835831 -0.177057 0.52619 -0.83173 
-0.313836 0.625551 -0.714278 -0.413862 0.715151 -0.563274 -0.446682 0.725564 -0.523481 
0.320587 0.317627 -0.892377 -0.487782 0.707401 -0.511521 0.350837 0.231974 -0.907249 
-0.511385 0.581019 -0.633169 -0.582605 0.624914 -0.519667 -0.598712 0.60165 -0.528736 