# vtk DataFile Version 4.2
3D Slicer output. SPACE=RAS
ASCII
DATASET POLYDATA
POINTS 2436 float
-111.543 -96.2281 69.4307 -111.299 -96.2579 69.4864 -111.839 -96.2026 69.388 
-112.147 -96.1879 69.3641 -112.46 -96.2053 69.355 -112.611 -95.9795 69.445 
-112.954 -96.2256 69.3783 -111.483 -96.4699 69.4102 -111.198 -96.4535 69.5022 
-112.082 -96.4417 69.3141 -112.661 -96.4962 69.2914 -111.408 -96.7055 69.4223 
-111.136 -96.7173 69.5231 -111.704 -96.7152 69.3462 -112.024 -96.7111 69.2923 
-112.385 -96.6889 69.2635 -113.025 -96.7357 69.2767 -113.21 -96.5576 69.3339 
-111.348 -96.9149 69.4531 -111.143 -97.0033 69.5507 -111.616 -96.9615 69.3763 
-111.945 -96.9828 69.3036 -112.607 -97.0047 69.2322 -111.465 -97.1847 69.4572 
-111.855 -97.2642 69.3535 -112.5 -97.2194 69.2381 -111.056 -95.8139 69.6601 
-111.003 -96.1227 69.6154 -111.325 -95.7225 69.6175 -111.665 -95.6777 69.5772 
-112.026 -95.6667 69.5567 -112.417 -95.6872 69.5599 -112.933 -95.7638 69.5964 
-113.336 -96.1367 69.5109 -110.891 -96.4478 69.6324 -113.48 -96.4957 69.4154 
-110.868 -96.7768 69.6541 -112.945 -97.0371 69.2372 -113.26 -97.0331 69.2664 
-110.931 -97.0343 69.6568 -111.146 -97.3879 69.6359 -111.718 -97.5722 69.4512 
-112.19 -97.6149 69.3335 -112.584 -97.5331 69.261 -110.155 -94.8714 70.2643 
-110.12 -95.1563 70.1738 -110.731 -95.1098 69.9838 -111.109 -95.099 69.9029 
-110.844 -94.7743 70.1015 -111.501 -95.0826 69.8523 -111.892 -95.0828 69.831 
-112.276 -95.099 69.8362 -112.614 -95.1221 69.8602 -112.44 -94.8318 70.0119 
-112.976 -94.9827 70.0306 -109.942 -95.3311 70.2065 -110.614 -95.3835 69.9228 
-112.149 -95.3836 69.685 -112.832 -95.352 69.7768 -109.689 -95.7237 70.276 
-109.503 -95.509 70.42 -109.489 -95.7065 70.4115 -110.012 -95.7136 70.1073 
-109.718 -95.4595 70.2929 -110.37 -95.8344 69.9192 -113.831 -96.315 69.5739 
-114.181 -96.2557 69.6885 -113.96 -96.0393 69.7226 -114.219 -96.0482 69.7982 
-109.603 -95.8949 70.3252 -109.417 -95.8658 70.4793 -109.868 -96.0585 70.1657 
-110.256 -96.1195 69.9527 -113.915 -96.8381 69.4334 -114.378 -96.6176 69.616 
-109.601 -96.1178 70.3484 -109.82 -96.3433 70.2094 -109.894 -96.6294 70.2007 
-110.157 -96.494 70.0205 -110.557 -96.4889 69.7997 -113.672 -97.2364 69.309 
-114.139 -97.2804 69.3838 -114.805 -96.5755 69.7562 -114.914 -96.9658 69.6562 
-115.259 -96.9556 69.7655 -115.081 -96.7547 69.7752 -110.167 -96.847 70.0611 
-109.951 -96.9449 70.2335 -110.593 -96.9657 69.8364 -113.106 -97.7539 69.2524 
-113.628 -97.7016 69.269 -114.963 -97.4455 69.5467 -115.416 -97.3085 69.7184 
-115.563 -96.9871 69.8814 -110.282 -97.1946 70.0727 -110.698 -97.4931 69.8879 
-111.096 -97.8873 69.7678 -110.736 -97.9046 69.9675 -111.576 -97.9534 69.5798 
-112.109 -98.0224 69.4249 -112.68 -98.0276 69.3119 -113.198 -98.2102 69.274 
-114.066 -98.0853 69.293 -114.532 -98.0134 69.3599 -114.987 -97.9176 69.463 
-115.437 -97.8042 69.6006 -116.122 -97.5371 69.917 -111.024 -98.1895 69.8787 
-110.777 -98.2458 70.0511 -111.436 -98.3842 69.7323 -111.984 -98.4569 69.5442 
-112.531 -98.5019 69.4074 -114.032 -98.5343 69.2879 -114.99 -98.3918 69.4075 
-115.89 -98.1681 69.6584 -116.249 -98.0582 69.7989 -116.492 -97.9283 69.9413 
-111.109 -98.5142 69.9369 -111.441 -98.7599 69.8258 -111.595 -99.0923 69.8489 
-111.867 -98.9122 69.6821 -112.416 -98.9566 69.5171 -112.955 -98.9877 69.4029 
-113.477 -99.0022 69.3351 -114.48 -98.9425 69.3249 -114.975 -98.8753 69.3786 
-115.465 -98.7857 69.4697 -115.943 -98.667 69.5952 -116.621 -98.2914 69.8837 
-111.913 -99.2964 69.7557 -111.739 -99.4324 69.8883 -112.323 -99.4219 69.641 
-112.863 -99.4466 69.5041 -113.397 -99.4577 69.4108 -113.92 -99.4491 69.3591 
-114.434 -99.4175 69.3475 -116.517 -99.0702 69.7079 -116.813 -98.7164 69.8517 
-112.07 -99.6092 69.7831 -112.381 -99.7989 69.714 -112.538 -100.103 69.7534 
-112.787 -99.9154 69.6233 -113.324 -99.9271 69.5099 -113.857 -99.9225 69.4346 
-114.382 -99.8986 69.3973 -114.899 -99.8562 69.3985 -115.411 -99.7989 69.4383 
-115.926 -99.7316 69.5175 -116.456 -99.6629 69.6384 -117.033 -99.1253 69.8593 
-117.389 -99.4039 69.9612 -117.903 -99.9246 70.0987 -117.755 -99.5823 70.1037 
-118.117 -99.9407 70.2016 -118.169 -99.7794 70.283 -112.85 -100.289 69.7028 
-112.676 -100.418 69.8184 -113.259 -100.402 69.6312 -113.798 -100.404 69.5364 
-114.331 -100.387 69.4754 -114.853 -100.35 69.4502 -116.89 -100.156 69.7227 
-117.377 -100.182 69.8658 -117.796 -100.236 70.0147 -118.154 -100.243 70.1766 
-113.009 -100.59 69.7547 -113.326 -100.777 69.7206 -113.489 -101.081 69.7867 
-113.743 -100.89 69.6654 -114.286 -100.882 69.5833 -114.815 -100.848 69.5321 
-115.327 -100.799 69.5166 -115.828 -100.744 69.5387 -116.319 -100.689 69.5973 
-116.801 -100.645 69.6897 -117.69 -100.622 69.9484 -118.431 -100.326 70.3198 
-118.398 -100.623 70.2685 -118.608 -100.709 70.3928 -113.816 -101.274 69.769 
-113.629 -101.403 69.8816 -114.249 -101.388 69.7256 -114.791 -101.357 69.6473 
-115.303 -101.301 69.6018 -115.794 -101.24 69.5955 -116.273 -101.181 69.6269 
-117.187 -101.083 69.7901 -117.608 -101.049 69.9127 -117.99 -101.021 70.0556 
-118.593 -100.952 70.3743 -118.766 -100.846 70.5243 -113.986 -101.591 69.8537 
-114.338 -101.8 69.8508 -114.537 -102.162 69.9628 -114.796 -101.898 69.8052 
-115.305 -101.808 69.7184 -115.781 -101.735 69.6825 -116.245 -101.668 69.6873 
-116.697 -101.606 69.7287 -117.133 -101.549 69.8034 -117.548 -101.496 69.9075 
-118.281 -101.393 70.1888 -118.83 -101.222 70.5493 -114.995 -102.435 69.9681 
-114.703 -102.577 70.1234 -115.364 -102.311 69.8593 -115.798 -102.224 69.797 
-116.238 -102.15 69.7767 -116.674 -102.082 69.7942 -117.098 -102.016 69.8465 
-117.89 -101.889 70.0444 -118.567 -101.748 70.3502 -118.855 -101.656 70.5464 
-115.121 -102.856 70.1251 -114.874 -102.954 70.2757 -115.455 -102.78 70.0148 
-115.841 -102.696 69.9342 -116.253 -102.622 69.8923 -116.67 -102.551 69.8876 
-117.08 -102.481 69.9179 -117.478 -102.412 69.982 -117.859 -102.342 70.0776 
-118.216 -102.267 70.2019 -118.545 -102.186 70.3538 -115.191 -103.148 70.2578 
-115.521 -103.211 70.192 -115.894 -103.142 70.092 -116.281 -103.075 70.0315 
-116.681 -103.011 70.0081 -117.078 -102.939 70.0168 -117.463 -102.866 70.0594 
-117.837 -102.796 70.1368 -118.194 -102.718 70.244 -118.831 -102.54 70.5416 
-115.382 -103.414 70.3507 -115.655 -103.538 70.3263 -115.848 -103.784 70.4233 
-115.953 -103.564 70.2716 -116.311 -103.495 70.1895 -116.7 -103.457 70.1544 
-117.095 -103.396 70.1463 -117.461 -103.305 70.1606 -117.82 -103.243 70.2194 
-118.18 -103.177 70.3137 -118.512 -103.077 70.4276 -118.817 -102.981 70.5716 
-116.101 -103.884 70.4163 -116.032 -104.049 70.5599 -116.343 -103.855 70.3551 
-116.693 -103.849 70.3127 -117.504 -103.751 70.2987 -117.784 -103.611 70.3006 
-118.169 -103.681 70.421 -118.516 -103.525 70.5067 -116.333 -104.137 70.5373 
-116.665 -104.168 70.4825 -117.304 -104.278 70.4774 -117.944 -104.048 70.4669 
-118.309 -104.123 70.5771 -118.597 -104.01 70.6485 -118.795 -103.771 70.6788 
-117.769 -104.582 70.6385 -117.737 -104.821 70.7668 -117.967 -104.476 70.6204 
-118.254 -104.431 70.6616 -118.003 -104.814 70.7857 -118.217 -104.715 70.767 
-109.899 -94.5737 70.5042 -109.849 -94.9823 70.3583 -110.552 -94.4235 70.3428 
-110.989 -94.445 70.2373 -111.388 -94.4589 70.1834 -111.789 -94.4763 70.1665 
-112.214 -94.5054 70.1862 -112.769 -94.5668 70.2631 -109.705 -95.2093 70.3554 
-113.571 -95.251 70.0543 -109.383 -95.3546 70.5356 -109.285 -95.538 70.6107 
-109.512 -95.2725 70.4584 -113.644 -95.5169 69.9102 -109.254 -95.8075 70.636 
-114.714 -96.1356 69.9404 -109.328 -96.1272 70.6081 -109.627 -96.4125 70.369 
-109.699 -96.7267 70.3788 -115.467 -96.6665 69.9936 -109.772 -96.9636 70.3874 
-109.948 -97.2983 70.3678 -110.383 -97.608 70.1198 -110.484 -97.9902 70.1726 
-116.638 -97.7159 70.1206 -110.575 -98.2535 70.2077 -110.783 -98.607 70.2153 
-111.232 -98.8832 69.992 -111.411 -99.2522 70.0252 -116.963 -98.4594 69.9841 
-111.592 -99.5688 70.0504 -111.888 -99.7567 69.9429 -112.209 -99.9308 69.8353 
-112.352 -100.244 69.906 -117.614 -99.2118 70.1198 -118.032 -99.4103 70.3461 
-112.516 -100.537 69.9697 -118.465 -100.014 70.4229 -112.819 -100.728 69.9028 
-113.148 -100.906 69.8328 -113.29 -101.216 69.932 -118.62 -100.363 70.466 
-118.832 -100.574 70.664 -113.767 -101.722 70.0017 -114.133 -101.938 69.9749 
-114.27 -102.3 70.136 -119.135 -101.529 70.8011 -119.122 -102.009 70.7462 
-114.742 -103.103 70.4621 -119.108 -102.447 70.731 -114.916 -103.444 70.6703 
-115.292 -103.585 70.5349 -115.578 -103.689 70.4606 -115.771 -103.944 70.5835 
-119.088 -103.327 70.782 -116.214 -104.377 70.7962 -116.643 -104.453 70.691 
-117.254 -104.506 70.5957 -117.479 -104.779 70.7477 -118.558 -104.419 70.7479 
-118.966 -104.129 70.8465 -117.662 -104.974 70.8687 -118.501 -104.769 70.862 
-117.971 -105.2 71.0281 -118.34 -105.051 70.9647 -110.947 -93.8481 70.5815 
-110.734 -93.5866 70.7827 -111.455 -93.5745 70.748 -112.061 -93.9103 70.5517 
-111.841 -93.6108 70.7481 -112.209 -93.6772 70.7511 -112.613 -93.937 70.6411 
-110.44 -94.0219 70.5815 -111.54 -94.1632 70.3513 -109.383 -94.737 70.7253 
-109.214 -94.4477 70.9636 -109.149 -94.739 70.8983 -109.536 -94.4006 70.7739 
-110.135 -94.2322 70.57 -113.83 -95.0474 70.3093 -113.402 -94.52 70.5204 
-113.98 -94.6456 70.6943 -114.794 -95.0736 70.789 -115.052 -95.0324 70.9866 
-115.044 -94.8189 71.191 -109.273 -95.1 70.6954 -108.985 -94.8965 70.9963 
-109.55 -95.0055 70.5158 -114.308 -95.5096 70.1907 -115.229 -95.3887 70.8032 
-108.803 -95.3275 71.1293 -108.628 -95.0899 71.3641 -108.645 -95.3434 71.3358 
-109.018 -95.2627 70.9034 -108.8 -95.0189 71.1589 -114.829 -95.9098 70.157 
-115.259 -95.8366 70.46 -115.884 -95.6867 71.0331 -108.769 -95.5528 71.1803 
-108.616 -95.5625 71.4198 -109.028 -95.6965 70.8875 -114.959 -96.2338 69.9932 
-115.69 -96.2011 70.4542 -116.014 -96.1648 70.7146 -116.242 -96.1027 70.9675 
-108.813 -95.8316 71.1741 -109.042 -96.1204 70.9356 -109.263 -96.4655 70.7578 
-109.04 -96.4358 71.0284 -109.479 -96.5233 70.5347 -116.086 -96.5336 70.4809 
[...]
POINT_DATA 2436
SCALARS ImageScalars unsigned_short
LOOKUP_TABLE default
7 7 7 7 7 7 7 7 7 
7 7 7 7 7 7 7 7 7 
7 7 7 7 7 7 7 7 7 
7 7 7 7 7 7 7 7 7 
7 7 7 7 7 7 7 7 7 
7 7 7 7 7 7 7 7 7 
7 7 7 7 7 7 7 7 7 
7 7 7 7 7 7 7 7 7 
7 7 7 7 7 7 7 7 7 
7 7 7 7 7 7 7 7 7 
7 7 7 7 7 7 7 7 7 
7 7 7 7 7 7 7 7 7 
7 7 7 7 7 7 7 7 7 
7 7 7 7 7 7 7 7 7 
7 7 7 7 7 7 7 7 7 
7 7 7 7 7 7 7 7 7 
7 7 7 7 7 7 7 7 7 
7 7 7 7 7 7 7 7 7 
7 7 7 7 7 7 7 7 7 
7 7 7 7 7 7 7 7 7 
7 7 7 7 7 7 7 7 7 
7 7 7 7 7 7 7 7 7 
7 7 7 7 7 7 7 7 7 
7 7 7 7 7 7 7 7 7 
7 7 7 7 7 7 7 7 7 
7 7 7 7 7 7 7 7 7 
7 7 7 7 7 7 7 7 7 
7 7 7 7 7 7 7 7 7 
7 7 7 7 7 7 7 7 7 
7 7 7 7 7 7 7 7 7 
7 7 7 7 7 7 7 7 7 
7 7 7 7 7 7 7 7 7 
7 7 7 7 7 7 7 7 7 
7 7 7 7 7 7 7 7 7 
7 7 7 7 7 7 7 7 7 
7 7 7 7 7 7 7 7 7 
7 7 7 7 7 7 7 7 7 
7 7 7 7 7 7 7 7 7 
7 7 7 7 7 7 7 7 7 
7 7 7 7 7 7 7 7 7 
7 7 7 7 7 7 7 7 7 
7 7 7 7 7 7 7 7 7 
7 7 7 7 7 7 7 7 7 
7 7 7 7 7 7 7 7 7 
7 7 7 7 7 7 7 7 7 
7 7 7 7 7 7 7 7 7 
7 7 7 7 7 7 7 7 7 
7 7 7 7 7 7 7 7 7 
7 7 7 7 7 7 7 7 7 
7 7 7 7 7 7 7 7 7 
7 7 7 7 7 7 7 7 7 
7 7 7 7 7 7 7 7 7 
7 7 7 7 7 7 7 7 7 
7 7 7 7 7 7 7 7 7 
7 7 7 7 7 7 7 7 7 
7 7 7 7 7 7 7 7 7 
7 7 7 7 7 7 7 7 7 
7 7 7 7 7 7 7 7 7 
7 7 7 7 7 7 7 7 7 
7 7 7 7 7 7 7 7 7 
7 7 7 7 7 7 7 7 7 
7 7 7 7 7 7 7 7 7 
7 7 7 7 7 7 7 7 7 
7 7 7 7 7 7 7 7 7 
7 7 7 7 7 7 7 7 7 
7 7 7 7 7 7 7 7 7 
7 7 7 7 7 7 7 7 7 
7 7 7 7 7 7 7 7 7 
7 7 7 7 7 7 7 7 7 
7 7 7 7 7 7 7 7 7 
7 7 7 7 7 7 7 7 7 
7 7 7 7 7 7 7 7 7 
7 7 7 7 7 7 7 7 7 
7 7 7 7 7 7 7 7 7 
7 7 7 7 7 7 7 7 7 
7 7 7 7 7 7 7 7 7 
7 7 7 7 7 7 7 7 7 
7 7 7 7 7 7 7 7 7 
7 7 7 7 7 7 7 7 7 
7 7 7 7 7 7 7 7 7 
7 7 7 7 7 7 7 7 7 
7 7 7 7 7 7 7 7 7 
7 7 7 7 7 7 7 7 7 
7 7 7 7 7 7 7 7 7 
7 7 7 7 7 7 7 7 7 
7 7 7 7 7 7 7 7 7 
7 7 7 7 7 7 7 7 7 
7 7 7 7 7 7 7 7 7 
7 7 7 7 7 7 7 7 7 
7 7 7 7 7 7 7 7 7 
7 7 7 7 7 7 7 7 7 
7 7 7 7 7 7 7 7 7 
7 7 7 7 7 7 7 7 7 
7 7 7 7 7 7 7 7 7 
7 7 7 7 7 7 7 7 7 
7 7 7 7 7 7 7 7 7 
7 7 7 7 7 7 7 7 7 
7 7 7 7 7 7 7 7 7 
7 7 7 7 7 7 7 7 7 
7 7 7 7 7 7 7 7 7 
7 7 7 7 7 7 7 7 7 
7 7 7 7 7 7 7 7 7 
7 7 7 7 7 7 7 7 7 
7 7 7 7 7 7 7 7 7 
7 7 7 7 7 7 7 7 7 
7 7 7 7 7 7 7 7 7 
7 7 7 7 7 7 7 7 7 
7 7 7 7 7 7 7 7 7 
7 7 7 7 7 7 7 7 7 
7 7 7 7 7 7 7 7 7 
7 7 7 7 7 7 7 7 7 
7 7 7 7 7 7 7 7 7 
7 7 7 7 7 7 7 7 7 
7 7 7 7 7 7 7 7 7 
7 7 7 7 7 7 7 7 7 
7 7 7 7 7 7 7 7 7 
7 7 7 7 7 7 7 7 7 
7 7 7 7 7 7 7 7 7 
7 7 7 7 7 7 7 7 7 
7 7 7 7 7 7 7 7 7 
7 7 7 7 7 7 7 7 7 
7 7 7 7 7 7 7 7 7 
7 7 7 7 7 7 7 7 7 
7 7 7 7 7 7 7 7 7 
7 7 7 7 7 7 7 7 7 
7 7 7 7 7 7 7 7 7 
7 7 7 7 7 7 7 7 7 
7 7 7 7 7 7 7 7 7 
7 7 7 7 7 7 7 7 7 
7 7 7 7 7 7 7 7 7 
7 7 7 7 7 7 7 7 7 
7 7 7 7 7 7 7 7 7 
7 7 7 7 7 7 7 7 7 
7 7 7 7 7 7 7 7 7 
7 7 7 7 7 7 7 7 7 
7 7 7 7 7 7 7 7 7 
7 7 7 7 7 7 7 7 7 
7 7 7 7 7 7 7 7 7 
7 7 7 7 7 7 7 7 7 
7 7 7 7 7 7 7 7 7 
7 7 7 7 7 7 7 7 7 
7 7 7 7 7 7 7 7 7 
7 7 7 7 7 7 7 7 7 
7 7 7 7 7 7 7 7 7 
7 7 7 7 7 7 7 7 7 
7 7 7 7 7 7 7 7 7 
7 7 7 7 7 7 7 7 7 
7 7 7 7 7 7 7 7 7 
7 7 7 7 7 7 7 7 7 
7 7 7 7 7 7 7 7 7 
7 7 7 7 7 7 7 7 7 
7 7 7 7 7 7 7 7 7 
7 7 7 7 7 7 7 7 7 
7 7 7 7 7 7 7 7 7 
7 7 7 7 7 7 7 7 7 
7 7 7 7 7 7 7 7 7 
7 7 7 7 7 7 7 7 7 
7 7 7 7 7 7 7 7 7 
7 7 7 7 7 7 7 7 7 
7 7 7 7 7 7 7 7 7 
7 7 7 7 7 7 7 7 7 
7 7 7 7 7 7 7 7 7 
7 7 7 7 7 7 7 7 7 
7 7 7 7 7 7 7 7 7 
7 7 7 7 7 7 7 7 7 
7 7 7 7 7 7 7 7 7 
7 7 7 7 7 7 7 7 7 
7 7 7 7 7 7 7 7 7 
7 7 7 7 7 7 7 7 7 
7 7 7 7 7 7 7 7 7 
7 7 7 7 7 7 7 7 7 
7 7 7 7 7 7 7 7 7 
7 7 7 7 7 7 7 7 7 
7 7 7 7 7 7 7 7 7 
7 7 7 7 7 7 7 7 7 
7 7 7 7 7 7 7 7 7 
7 7 7 7 7 7 7 7 7 
7 7 7 7 7 7 7 7 7 
7 7 7 7 7 7 7 7 7 
7 7 7 7 7 7 7 7 7 
7 7 7 7 7 7 7 7 7 
7 7 7 7 7 7 7 7 7 
7 7 7 7 7 7 7 7 7 
7 7 7 7 7 7 7 7 7 
7 7 7 7 7 7 7 7 7 
7 7 7 7 7 7 7 7 7 
7 7 7 7 7 7 7 7 7 
7 7 7 7 7 7 7 7 7 
7 7 7 7 7 7 7 7 7 
7 7 7 7 7 7 7 7 7 
7 7 7 7 7 7 7 7 7 
7 7 7 7 7 7 7 7 7 
7 7 7 7 7 7 7 7 7 
7 7 7 7 7 7 7 7 7 
7 7 7 7 7 7 7 7 7 
7 7 7 7 7 7 7 7 7 
7 7 7 7 7 7 7 7 7 
7 7 7 7 7 7 7 7 7 
7 7 7 7 7 7 7 7 7 
7 7 7 7 7 7 7 7 7 
7 7 7 7 7 7 7 7 7 
7 7 7 7 7 7 7 7 7 
7 7 7 7 7 7 7 7 7 
7 7 7 7 7 7 7 7 7 
7 7 7 7 7 7 7 7 7 
7 7 7 7 7 7 7 7 7 
7 7 7 7 7 7 7 7 7 
7 7 7 7 7 7 7 7 7 
7 7 7 7 7 7 7 7 7 
7 7 7 7 7 7 7 7 7 
7 7 7 7 7 7 7 7 7 
7 7 7 7 7 7 7 7 7 
7 7 7 7 7 7 7 7 7 
7 7 7 7 7 7 7 7 7 
7 7 7 7 7 7 7 7 7 
7 7 7 7 7 7 7 7 7 
7 7 7 7 7 7 7 7 7 
7 7 7 7 7 7 7 7 7 
7 7 7 7 7 7 7 7 7 
7 7 7 7 7 7 7 7 7 
7 7 7 7 7 7 7 7 7 
7 7 7 7 7 7 7 7 7 
7 7 7 7 7 7 7 7 7 
7 7 7 7 7 7 7 7 7 
7 7 7 7 7 7 7 7 7 
7 7 7 7 7 7 7 7 7 
7 7 7 7 7 7 7 7 7 
7 7 7 7 7 7 7 7 7 
7 7 7 7 7 7 7 7 7 
7 7 7 7 7 7 7 7 7 
7 7 7 7 7 7 7 7 7 
7 7 7 7 7 7 7 7 7 
7 7 7 7 7 7 7 7 7 
7 7 7 7 7 7 7 7 7 
7 7 7 7 7 7 7 7 7 
7 7 7 7 7 7 7 7 7 
7 7 7 7 7 7 7 7 7 
7 7 7 7 7 7 7 7 7 
7 7 7 7 7 7 7 7 7 
7 7 7 7 7 7 7 7 7 
7 7 7 7 7 7 7 7 7 
7 7 7 7 7 7 7 7 7 
7 7 7 7 7 7 7 7 7 
7 7 7 7 7 7 7 7 7 
7 7 7 7 7 7 7 7 7 
7 7 7 7 7 7 7 7 7 
7 7 7 7 7 7 7 7 7 
7 7 7 7 7 7 7 7 7 
7 7 7 7 7 7 7 7 7 
7 7 7 7 7 7 7 7 7 
7 7 7 7 7 7 7 7 7 
7 7 7 7 7 7 7 7 7 
7 7 7 7 7 7 7 7 7 
7 7 7 7 7 7 7 7 7 
7 7 7 7 7 7 7 7 7 
7 7 7 7 7 7 7 7 7 
7 7 7 7 7 7 7 7 7 
7 7 7 7 7 7 7 7 7 
7 7 7 7 7 7 7 7 7 
7 7 7 7 7 7 7 7 7 
7 7 7 7 7 7 7 7 7 
7 7 7 7 7 7 7 7 7 
7 7 7 7 7 7 7 7 7 
7 7 7 7 7 7 7 7 7 
7 7 7 7 7 7 7 7 7 
7 7 7 7 7 7 7 7 7 
7 7 7 7 7 7 7 7 7 
7 7 7 7 7 7 7 7 7 
7 7 7 7 7 7 7 7 7 
7 7 7 7 7 7 7 7 7 
7 7 7 7 7 7 
METADATA
INFORMATION 0

NORMALS Normals float
0.183004 0.200011 -0.962551 0.282067 0.167705 -0.944623 0.121189 0.233279 -0.964828 
0.0289839 0.30592 -0.951616 -0.00750664 0.256826 -0.966428 -0.0624013 0.388615 -0.919285 
-0.138911 0.312258 -0.939786 0.249088 0.0835071 -0.964874 0.348299 0.0577125 -0.935605 
0.0901057 0.156731 -0.983522 -0.0348097 0.175133 -0.983929 0.297369 -0.0073125 -0.954735 
0.388978 -0.0396668 -0.920393 0.191165 0.0559546 -0.979962 0.124232 0.0506998 -0.990957 
0.0573224 0.0890386 -0.994377 -0.0836171 0.152042 -0.984831 -0.180378 0.204302 -0.962146 
0.336998 -0.101861 -0.935979 0.40011 -0.147307 -0.904551 0.259223 -0.0877134 -0.961826 
0.159852 -0.041699 -0.98626 0.00252155 0.0681957 -0.997669 0.328368 -0.177886 -0.927648 
0.230149 -0.140117 -0.963015 0.0957643 -0.0558005 -0.993839 0.280948 0.25619 -0.924897 
0.381523 0.123058 -0.916131 0.195957 0.309048 -0.93064 0.0987823 0.361035 -0.927306 
0.032471 0.368156 -0.929197 -0.0677096 0.405864 -0.911422 -0.175825 0.43294 -0.884109 
-0.235087 0.394946 -0.888117 0.423507 0.0312722 -0.905353 -0.233407 0.268613 -0.934542 
0.452911 -0.0834997 -0.887637 -0.0363833 0.0169581 -0.999194 -0.142474 0.110656 -0.983594 
0.457581 -0.173575 -0.872061 0.411124 -0.202496 -0.888804 0.301591 -0.188353 -0.934648 
0.196402 -0.146648 -0.969495 0.0759158 -0.0907289 -0.992978 0.318769 0.370037 -0.872616 
0.356434 0.288926 -0.888525 0.254603 0.345487 -0.903225 0.176279 0.384796 -0.906012 
0.192096 0.413587 -0.889969 0.0900326 0.425823 -0.900316 -0.00791868 0.469119 -0.883099 
-0.0708942 0.469925 -0.879855 -0.143478 0.491193 -0.859153 -0.120697 0.531323 -0.838527 
-0.240243 0.539467 -0.807006 0.408634 0.209503 -0.888328 0.339937 0.238538 -0.909694 
-0.0251884 0.431839 -0.901599 -0.168389 0.458121 -0.872794 0.51349 0.0651798 -0.855617 
0.586748 0.10354 -0.803123 0.623725 0.0347175 -0.780873 0.435709 0.116604 -0.892503 
0.485019 0.150919 -0.861383 0.394101 0.131227 -0.90965 -0.232519 0.350407 -0.907276 
-0.279332 0.372127 -0.885153 -0.248285 0.44908 -0.858302 -0.301551 0.488568 -0.81876 
0.581992 -0.0264819 -0.812763 0.677757 -0.0519118 -0.733451 0.507749 -0.0122662 -0.861418 
0.457719 0.0232291 -0.888794 -0.218236 0.230774 -0.948217 -0.259465 0.310444 -0.914496 
0.623034 -0.0888527 -0.777131 0.561276 -0.0868674 -0.823057 0.573816 -0.149577 -0.805209 
0.498247 -0.0782112 -0.8635 0.455458 -0.00781541 -0.890223 -0.16679 0.130699 -0.977292 
-0.194004 0.16739 -0.966614 -0.293846 0.378385 -0.877769 -0.26353 0.269653 -0.926196 
-0.337483 0.323237 -0.884095 -0.328388 0.370131 -0.869002 0.525063 -0.16296 -0.835316 
0.590273 -0.227778 -0.7744 0.488313 -0.156656 -0.858492 0.00511828 -0.0395203 -0.999206 
-0.0893947 0.0301474 -0.99554 -0.240855 0.204356 -0.948803 -0.342061 0.262191 -0.902358 
-0.408364 0.32842 -0.851692 0.545295 -0.221275 -0.808511 0.487867 -0.197335 -0.85032 
0.427558 -0.203309 -0.880829 0.51517 -0.23376 -0.824594 0.342155 -0.194119 -0.919374 
0.247718 -0.173619 -0.953149 0.138086 -0.130476 -0.981788 0.0541804 -0.0763164 -0.995611 
-0.0914153 0.0353795 -0.995184 -0.15392 0.0830869 -0.984584 -0.223109 0.150632 -0.963085 
-0.286985 0.212861 -0.933986 -0.40464 0.348877 -0.845311 0.468095 -0.247454 -0.848324 
0.544517 -0.300981 -0.782887 0.393403 -0.220314 -0.892578 0.297182 -0.18977 -0.935773 
0.19772 -0.157174 -0.967576 -0.0364098 -0.0347086 -0.998734 -0.198812 0.0939515 -0.975524 
-0.272278 0.17542 -0.946093 -0.333405 0.251171 -0.90871 -0.428691 0.313113 -0.847457 
0.500276 -0.285985 -0.817274 0.440387 -0.252079 -0.861693 0.453343 -0.27523 -0.847778 
0.347351 -0.212987 -0.913227 0.253972 -0.185603 -0.949236 0.168141 -0.151172 -0.974102 
0.0789696 -0.113409 -0.990405 -0.0915201 -0.0116382 -0.995735 -0.126363 0.00701783 -0.991959 
-0.199068 0.0736785 -0.977212 -0.262757 0.120617 -0.957293 -0.38496 0.262202 -0.884905 
0.383059 -0.250698 -0.889053 0.475328 -0.326008 -0.817179 0.295099 -0.215141 -0.93093 
0.210986 -0.189885 -0.958868 0.133985 -0.162149 -0.977628 0.0515413 -0.115417 -0.991979 
-0.0354108 -0.0696107 -0.996946 -0.268749 0.106418 -0.957314 -0.34172 0.213555 -0.915217 
0.398381 -0.291476 -0.869675 0.331988 -0.266828 -0.904758 0.353917 -0.314155 -0.880936 
0.249406 -0.228652 -0.941018 0.171403 -0.199741 -0.964741 0.099805 -0.168566 -0.980625 
0.026333 -0.127543 -0.991483 -0.0551397 -0.0749896 -0.995659 -0.110053 -0.0423541 -0.993023 
-0.190917 0.0272275 -0.981229 -0.248565 0.0592657 -0.9668 -0.327014 0.117947 -0.93763 
-0.359717 0.117347 -0.925653 -0.415022 0.178084 -0.892213 -0.435363 0.200009 -0.877756 
-0.496812 0.195889 -0.845462 -0.558817 0.314559 -0.767318 0.290276 -0.287387 -0.91277 
0.391625 -0.376221 -0.839695 0.210432 -0.246963 -0.9459 0.137892 -0.21366 -0.967127 
0.0713427 -0.177744 -0.981487 -0.01226 -0.129275 -0.991533 -0.256755 0.0490196 -0.965233 
-0.333221 0.0908031 -0.938466 -0.373101 0.0923884 -0.923179 -0.467355 0.12269 -0.875515 
0.315924 -0.33669 -0.887035 0.253824 -0.310054 -0.91621 0.281313 -0.361362 -0.888977 
0.17838 -0.269477 -0.946342 0.112113 -0.230476 -0.966598 0.0482427 -0.187895 -0.981004 
-0.0250989 -0.129862 -0.991214 -0.0991392 -0.0764295 -0.992134 -0.176535 -0.0259237 -0.983953 
-0.234425 0.00415764 -0.972125 -0.329485 0.0342165 -0.943541 -0.565796 0.152856 -0.810253 
-0.463538 0.052264 -0.884534 -0.634184 0.0959998 -0.767199 0.224056 -0.337495 -0.914273 
0.340539 -0.434058 -0.834042 0.157254 -0.296175 -0.942099 0.0938395 -0.246289 -0.964643 
0.0267735 -0.195851 -0.980268 -0.044865 -0.146552 -0.988185 -0.126632 -0.0962131 -0.987273 
-0.227816 -0.0330058 -0.973145 -0.325132 -0.0168496 -0.945519 -0.40974 0.0111005 -0.912135 
-0.551094 0.0164968 -0.83428 -0.707141 0.0879941 -0.701576 0.254362 -0.390606 -0.884718 
0.207772 -0.368805 -0.905988 0.246378 -0.417674 -0.874555 0.148328 -0.318164 -0.93636 
0.0744644 -0.252588 -0.964704 0.000614272 -0.202075 -0.97937 -0.0730513 -0.156095 -0.985037 
-0.149643 -0.10293 -0.983368 -0.223772 -0.085663 -0.97087 -0.302361 -0.048928 -0.951937 
-0.438906 -0.0188434 -0.898336 -0.673567 0.0799273 -0.734792 0.206588 -0.378534 -0.902238 
0.326508 -0.474269 -0.817595 0.119404 -0.309485 -0.943378 0.0430975 -0.256906 -0.965475 
-0.0321113 -0.210891 -0.976982 -0.106773 -0.1687 -0.979867 -0.194155 -0.125352 -0.972929 
-0.321998 -0.0739452 -0.943848 -0.500822 -0.0143836 -0.865431 -0.611517 0.0291538 -0.790694 
0.262166 -0.430458 -0.863698 0.376241 -0.507437 -0.77521 0.163762 -0.368301 -0.91517 
0.0835866 -0.314138 -0.945691 0.00703039 -0.266929 -0.963691 -0.0685778 -0.223795 -0.972221 
-0.145555 -0.183154 -0.972249 -0.229692 -0.135016 -0.963853 -0.305467 -0.111882 -0.945607 
-0.403196 -0.0780734 -0.911777 -0.500237 -0.0423385 -0.864853 0.357063 -0.527355 -0.770975 
0.22003 -0.433955 -0.873653 0.126259 -0.374948 -0.918408 0.0465072 -0.325921 -0.944252 
-0.030497 -0.281841 -0.958976 -0.107262 -0.238702 -0.965151 -0.189698 -0.196939 -0.961889 
-0.272754 -0.161252 -0.948474 -0.370318 -0.119886 -0.921136 -0.509493 -0.0637058 -0.858113 
0.33581 -0.522319 -0.783846 0.259674 -0.495898 -0.828646 0.263618 -0.548432 -0.793554 
0.171316 -0.44593 -0.87852 0.089544 -0.389541 -0.916646 0.00120562 -0.347616 -0.937636 
-0.0693161 -0.298554 -0.951872 -0.149674 -0.251338 -0.956257 -0.239707 -0.210162 -0.947825 
-0.320695 -0.176184 -0.930652 -0.414462 -0.121345 -0.90194 -0.511268 -0.0997848 -0.853609 
0.201081 -0.529524 -0.824118 0.291385 -0.632867 -0.717339 0.137442 -0.474086 -0.869685 
0.0468965 -0.405177 -0.913034 -0.0878732 -0.32694 -0.940951 -0.198891 -0.261893 -0.94438 
-0.281578 -0.229621 -0.931659 -0.398121 -0.169676 -0.901504 0.214176 -0.585054 -0.782203 
0.136095 -0.508207 -0.850414 -0.024856 -0.391878 -0.919681 -0.179021 -0.304873 -0.935417 
-0.273331 -0.266533 -0.924257 -0.357603 -0.228381 -0.905518 -0.473094 -0.159085 -0.86653 
-0.0519287 -0.445333 -0.893858 -0.0245449 -0.519739 -0.853973 -0.140078 -0.368649 -0.918954 
-0.227939 -0.331019 -0.91568 -0.104359 -0.47753 -0.872396 -0.17815 -0.411797 -0.893692 
0.406984 0.374538 -0.833117 0.420927 0.310575 -0.85227 0.225831 0.438527 -0.869882 
0.130099 0.47438 -0.870654 0.081943 0.467852 -0.88 -0.0216248 0.503134 -0.863938 
-0.119184 0.528812 -0.840329 -0.217273 0.551484 -0.805393 0.470444 0.24084 -0.848928 
-0.285387 0.524503 -0.802154 0.644239 0.133791 -0.753031 0.698945 0.0516367 -0.713309 
0.554203 0.202323 -0.807419 -0.267253 0.474356 -0.838786 0.72821 -0.0479539 -0.683674 
-0.325229 0.45126 -0.831018 0.720721 -0.124204 -0.682008 0.647789 -0.138324 -0.749157 
0.655887 -0.206871 -0.725959 -0.415988 0.453063 -0.788472 0.661337 -0.268408 -0.700422 
0.645771 -0.283495 -0.70895 0.571858 -0.240433 -0.784328 0.59821 -0.290154 -0.746964 
-0.488636 0.389334 -0.780804 0.612001 -0.341054 -0.713538 0.604622 -0.358645 -0.7112 
0.531368 -0.310487 -0.788192 0.544762 -0.354074 -0.760175 -0.422882 0.308896 -0.851912 
0.552714 -0.422039 -0.718603 0.528112 -0.428489 -0.733141 0.445424 -0.364168 -0.817911 
0.467848 -0.403938 -0.786099 -0.513583 0.234928 -0.825252 -0.60052 0.319058 -0.733197 
0.480873 -0.455133 -0.74941 -0.600055 0.252711 -0.758994 0.4282 -0.434593 -0.792322 
0.356631 -0.398992 -0.84476 0.433973 -0.499653 -0.749676 -0.690259 0.158974 -0.705883 
-0.777503 0.167887 -0.606055 0.370446 -0.471702 -0.800167 0.301728 -0.452325 -0.839263 
0.356285 -0.518982 -0.776993 -0.687131 0.107623 -0.718518 -0.617764 0.0110271 -0.786286 
0.439378 -0.610159 -0.659282 -0.625507 -0.0140449 -0.780092 0.477286 -0.641967 -0.600063 
0.429119 -0.597646 -0.677256 0.374392 -0.60412 -0.70347 0.358545 -0.639018 -0.680515 
-0.542835 -0.0984923 -0.834044 0.344746 -0.670436 -0.657012 0.224373 -0.600848 -0.767228 
0.0893595 -0.511102 -0.854862 0.0686322 -0.549797 -0.832474 -0.334374 -0.284711 -0.898406 
-0.444996 -0.212246 -0.870017 0.0646524 -0.598438 -0.798556 -0.248551 -0.379771 -0.891065 
0.0070742 -0.56964 -0.821864 -0.140305 -0.474605 -0.868945 0.111657 0.517184 -0.84856 
0.129259 0.553341 -0.822865 -0.00930944 0.5959 -0.803004 -0.101381 0.563796 -0.819668 
-0.0782806 0.605438 -0.792033 -0.158148 0.620452 -0.768133 -0.23965 0.598382 -0.764531 
0.228166 0.481235 -0.846376 0.00835982 0.537152 -0.843444 0.545815 0.292773 -0.785092 
0.562223 0.334551 -0.756294 0.610746 0.254542 -0.749799 0.454283 0.375749 -0.807737 
0.329882 0.422766 -0.844066 -0.33957 0.558044 -0.757152 -0.313508 0.566248 -0.762284 
-0.381086 0.58885 -0.712762 -0.405254 0.585633 -0.701999 -0.462532 0.602287 -0.650627 
-0.452558 0.640976 -0.619952 0.634608 0.189007 -0.749366 0.672282 0.175827 -0.719112 
0.50659 0.295958 -0.8098 -0.337331 0.538615 -0.772077 -0.473535 0.574005 -0.668045 
0.763842 0.013112 -0.64527 0.812786 0.0373319 -0.581365 0.831945 -0.0351659 -0.553742 
0.707223 0.0731925 -0.703192 0.74005 0.0989366 -0.665235 -0.377218 0.547367 -0.747058 
-0.4448 0.553238 -0.70433 -0.55384 0.594052 -0.583407 0.800495 -0.0753448 -0.594585 
0.860069 -0.111982 -0.497736 0.753411 -0.0523685 -0.655462 -0.391209 0.487209 -0.780758 
-0.464831 0.537283 -0.703746 -0.53443 0.536576 -0.653047 -0.580857 0.559394 -0.591341 
0.812017 -0.127204 -0.569603 0.772951 -0.13914 -0.61902 0.744923 -0.196793 -0.637466 
0.793477 -0.21793 -0.568243 0.706265 -0.190833 -0.681742 -0.51368 0.515893 -0.685557 
0.760006 -0.269349 -0.591475 0.803965 -0.303731 -0.511261 0.716136 -0.276442 -0.640881 
-0.466789 0.402449 -0.787492 -0.53164 0.492241 -0.689245 0.769405 -0.321054 -0.552213 
0.724292 -0.308476 -0.61664 0.688236 -0.322816 -0.649709 0.741824 -0.350051 -0.571981 
0.637846 -0.299279 -0.709637 -0.521964 0.39649 -0.755214 -0.581341 0.46468 -0.667918 
-0.614148 0.446092 -0.651017 0.712286 -0.380559 -0.589766 0.661532 -0.364882 -0.655162 
-0.496629 0.379456 -0.780623 -0.601188 0.388958 -0.698058 0.718867 -0.407929 -0.562872 
0.676036 -0.394819 -0.622169 0.64491 -0.401376 -0.650376 0.692253 -0.428959 -0.580328 
0.595534 -0.371692 -0.712169 -0.506582 0.328151 -0.797303 -0.625327 0.38909 -0.676442 
-0.680124 0.376925 -0.628776 -0.724175 0.440547 -0.530556 0.657978 -0.43972 -0.61132 
0.599601 -0.441948 -0.667204 -0.447934 0.232243 -0.863376 -0.5846 0.31678 -0.746923 
-0.702771 0.379283 -0.601878 0.656 -0.474158 -0.58723 0.724847 -0.479662 -0.494491 
0.607842 -0.471229 -0.639117 -0.705932 0.355376 -0.612674 -0.690146 0.366371 -0.624075 
-0.800527 0.299446 -0.519122 0.678541 -0.516395 -0.522416 0.722081 -0.541055 -0.431114 
0.58833 -0.490928 -0.64254 0.545809 -0.483344 -0.68445 -0.729344 0.231903 -0.643644 
-0.825112 0.255132 -0.504082 0.636549 -0.530002 -0.560271 0.663855 -0.602308 -0.443306 
0.595106 -0.553071 -0.583061 0.503917 -0.52549 -0.685513 0.45399 -0.499471 -0.737849 
-0.826171 0.262734 -0.498409 0.649422 -0.598571 -0.469003 0.5917 -0.559228 -0.580651 
0.536684 -0.545436 -0.643793 -0.751811 0.220016 -0.62159 0.630647 -0.60379 -0.487567 
0.606882 -0.615799 -0.50248 0.523557 -0.554095 -0.6472 0.45803 -0.530058 -0.713616 
0.393765 -0.51721 -0.759897 -0.736569 0.146345 -0.66034 -0.694472 0.0596594 -0.717042 
-0.790573 0.0868952 -0.606172 0.608261 -0.667366 -0.429699 0.568789 -0.616012 -0.544984 
0.456453 -0.559367 -0.691925 -0.731091 0.0101728 -0.682204 -0.845814 0.0589034 -0.530215 
0.518648 -0.599513 -0.60958 0.515384 -0.617325 -0.594382 0.439286 -0.573221 -0.691697 
-0.641092 -0.0379255 -0.766526 -0.768864 -0.0199986 -0.6391 -0.855749 0.0320946 -0.516395 
-0.662855 -0.0734724 -0.745134 -0.746958 -0.027123 -0.664317 0.458216 -0.677147 -0.575769 
0.522641 -0.701882 -0.48395 -0.618465 -0.0967087 -0.779839 -0.777764 -0.00972218 -0.628481 
0.523727 -0.725862 -0.445909 0.424755 -0.692228 -0.583441 -0.553785 -0.144699 -0.819991 
-0.670246 -0.0579194 -0.739875 -0.766165 -0.0095788 -0.642572 0.498682 -0.725518 -0.474279 
0.422066 -0.699156 -0.577098 0.293764 -0.667998 -0.683726 0.180636 -0.606936 -0.773951 
-0.333245 -0.319925 -0.886903 -0.45241 -0.226714 -0.862512 -0.59428 -0.127848 -0.794031 
-0.750695 -0.0293728 -0.659995 0.413647 -0.723076 -0.553224 0.262841 -0.677827 -0.686633 
0.158467 -0.647224 -0.745647 -0.234217 -0.406478 -0.883129 -0.366381 -0.311877 -0.87664 
-0.477713 -0.214282 -0.851982 -0.612718 -0.126828 -0.780058 0.313964 -0.708183 -0.632379 
0.177693 -0.636903 -0.750187 0.0940878 -0.589143 -0.802533 -0.097308 -0.494713 -0.863592 
-0.285764 -0.369241 -0.884308 -0.494893 -0.23618 -0.836242 0.163123 -0.618534 -0.768639 
0.260354 -0.69619 -0.668981 0.00450646 -0.559217 -0.829009 -0.170061 -0.449292 -0.87705 
-0.351983 -0.340168 -0.872006 -0.459024 -0.288152 -0.840396 -0.556493 -0.251625 -0.791834 
0.139003 -0.650294 -0.746858 0.119507 -0.64693 -0.753127 -0.0196974 -0.547017 -0.83689 
-0.167278 -0.489583 -0.855761 -0.286632 -0.420965 -0.860599 -0.449446 -0.33142 -0.829553 
0.0749954 -0.685189 -0.724494 -0.10996 -0.556216 -0.823731 -0.318811 -0.437413 -0.840851 