# vtk DataFile Version 4.2
3D Slicer output. SPACE=RAS
ASCII
DATASET POLYDATA
POINTS 2832 float
-74.1571 -91.9231 50.2909 -74.0879 -91.8656 50.3404 -74.2425 -91.8969 50.3057 
-74.1363 -92.012 50.265 -74.2341 -91.9827 50.2783 -72.3534 -92.9665 50.3072 
-72.2813 -93.2093 50.2582 -72.7772 -93.1145 50.1091 -72.9152 -92.8696 50.1566 
-73.1819 -93.0425 50.0362 -72.4096 -93.4324 50.1555 -72.1316 -93.4469 50.2704 
-72.6798 -93.3818 50.078 -73.163 -93.2187 50.0055 -73.3318 -93.0795 50.0264 
-72.2982 -93.7276 50.1544 -72.0008 -93.7864 50.2688 -72.589 -93.6746 50.0666 
-72.8819 -93.6038 50.0054 -71.915 -94.1336 50.2729 -72.4955 -93.9848 50.0743 
-72.8045 -93.9238 50.0056 -73.1553 -93.8483 49.9549 -73.4343 -93.6385 49.9442 
-72.1292 -94.3568 50.1837 -72.7091 -94.2428 50.03 -73.4644 -93.9251 49.9265 
-73.3515 -94.1693 49.9388 -73.6808 -94.1869 49.9389 -72.087 -94.6086 50.2123 
-72.322 -94.5882 50.1437 -72.934 -94.5059 50.0218 -73.498 -94.4124 49.9617 
-72.5192 -94.8578 50.1475 -73.1838 -94.7635 50.049 -73.6809 -94.563 50.0035 
-73.9941 -91.771 50.4309 -74.2256 -91.7305 50.4337 -74.4591 -91.8069 50.4265 
-73.9 -92.1752 50.2715 -72.2433 -92.8032 50.4244 -72.0298 -93.0482 50.4391 
-72.4602 -92.6912 50.3844 -72.7969 -92.6208 50.3029 -73.1496 -92.6312 50.2156 
-73.4247 -92.8238 50.1129 -74.0674 -92.3361 50.2401 -74.398 -92.244 50.2829 
-71.8116 -93.4898 50.4171 -71.689 -93.8808 50.4062 -73.6421 -93.4333 49.9799 
-71.6297 -94.2674 50.4037 -71.6439 -94.6492 50.4055 -73.6067 -93.7991 49.9301 
-71.7435 -94.9741 50.4038 -72.0347 -95.1062 50.3261 -72.7572 -95.1574 50.1848 
-73.9216 -90.6981 51.224 -73.7513 -90.5129 51.4486 -73.6027 -90.7502 51.2599 
-74.3045 -90.6291 51.215 -74.5047 -90.3482 51.4233 -75.0757 -90.5176 51.2625 
-74.8804 -90.3005 51.4233 -75.2359 -90.2642 51.4509 -75.7808 -90.4445 51.3932 
-76.0962 -90.4312 51.4733 -75.9071 -90.2306 51.579 -76.2175 -90.2574 51.6436 
-76.5717 -90.4327 51.6163 -76.4656 -90.3088 51.6779 -76.6129 -90.3506 51.6944 
-76.7111 -90.3636 51.7465 -74.0984 -90.9271 51.0113 -74.504 -90.868 51.0234 
-74.9101 -90.8086 51.0669 -75.3012 -90.7493 51.1347 -75.6652 -90.696 51.2184 
-75.9985 -90.6565 51.311 -76.2974 -90.6282 51.4098 -76.7293 -90.548 51.6271 
-76.822 -90.4692 51.7451 -72.8795 -91.3875 50.988 -72.6945 -91.2177 51.2016 
-72.578 -91.4639 51.0644 -73.2813 -91.2628 50.9402 -73.0103 -91.0991 51.1599 
-73.6043 -91.2946 50.8226 -74.7325 -91.1378 50.8596 -75.5594 -90.989 51.0468 
-76.2333 -90.8776 51.2653 -76.5299 -90.8338 51.3932 -72.3354 -91.7213 51.0038 
-73.4418 -91.5518 50.6966 -74.5174 -91.5154 50.6199 -75.014 -91.4276 50.7447 
-75.8559 -91.2269 51.0069 -76.1501 -91.1201 51.1316 -76.8122 -91.0338 51.4334 
-77.0498 -90.9331 51.6221 -72.4428 -92.0553 50.74 -72.0509 -92.0794 50.9104 
-72.8494 -91.987 50.6218 -73.279 -91.9187 50.5357 -74.8547 -91.8436 50.5284 
-75.3641 -91.7178 50.6993 -76.621 -91.4891 51.1581 -77.0884 -91.1876 51.5143 
-72.1572 -92.5219 50.6113 -71.751 -92.396 50.8745 -72.6186 -92.3574 50.4995 
-74.8121 -92.3096 50.3753 -75.7539 -92.0054 50.7079 -76.1764 -91.8717 50.8723 
-76.555 -91.7764 51.0318 -71.3709 -92.9469 50.8223 -71.1596 -92.7629 51.0333 
-71.0994 -93.0522 50.9511 -71.7178 -92.7818 50.7037 -71.445 -92.6103 50.9282 
-74.451 -92.6522 50.238 -74.9 -92.7129 50.3164 -75.2646 -92.5769 50.4326 
-75.7182 -92.4438 50.586 -76.1576 -92.2928 50.7503 -71.2541 -93.3055 50.77 
-70.9292 -93.3556 50.9651 -71.6 -93.1918 50.6104 -74.3178 -93.1307 50.1422 
-75.2083 -92.9872 50.3515 -76.1778 -92.7821 50.6569 -76.5771 -92.5415 50.8266 
-71.1125 -93.7066 50.7591 -70.7522 -93.7719 50.969 -71.463 -93.5968 50.5771 
-73.8746 -93.5999 49.9907 -74.6509 -93.4723 50.1751 -75.5563 -93.3115 50.412 
-76.4808 -93.2044 50.6942 -76.7648 -93.3056 50.7803 -70.9691 -94.2033 50.7726 
-70.5579 -94.1626 51.0161 -71.3584 -94.0179 50.5678 -74.0439 -93.914 50.0155 
-74.9895 -93.8199 50.247 -75.8978 -93.646 50.4948 -76.6903 -93.5317 50.7533 
-76.9674 -93.4537 50.868 -70.3056 -94.8459 51.1137 -70.0464 -94.6293 51.2968 
-70.0456 -94.966 51.2774 -70.3119 -94.4412 51.1338 -71.058 -94.6644 50.7034 
-71.3339 -94.4585 50.5573 -74.3287 -94.3519 50.1134 -75.3511 -94.164 50.3536 
-76.2282 -93.9669 50.6025 -70.2357 -95.2413 51.1593 -69.9209 -95.2724 51.3672 
-70.5794 -95.1494 50.967 -74.2662 -94.8898 50.1853 -74.7768 -94.7343 50.2712 
-75.2667 -94.6128 50.3765 -75.7262 -94.4905 50.4879 -76.1552 -94.3735 50.6076 
-76.5574 -94.2651 50.739 -76.9346 -94.1565 50.8845 -70.1327 -95.6293 51.2469 
-69.8011 -95.6664 51.4651 -70.4838 -95.5791 51.0501 -70.8659 -95.5145 50.8633 
-72.2219 -95.4803 50.3762 -73.046 -95.4757 50.2544 -73.4658 -95.401 50.2277 
-73.9292 -95.2608 50.2222 -75.2032 -95.0818 50.4389 -76.8871 -94.5494 50.9036 
-70.0285 -96.0209 51.3496 -69.7048 -96.0652 51.5621 -70.3797 -95.9861 51.1561 
-70.7599 -95.9432 50.9759 -71.1684 -95.8958 50.8073 -71.6047 -95.8549 50.6516 
-72.4949 -95.8648 50.4388 -73.3801 -95.8106 50.3575 -74.2912 -95.6475 50.3792 
-74.6514 -95.5446 50.4119 -75.1253 -95.5958 50.5391 -75.6462 -95.4036 50.6308 
-76.0834 -95.2139 50.7186 -76.4656 -95.0488 50.8136 -69.9341 -96.3859 51.4553 
-69.6587 -96.4271 51.6371 -70.2713 -96.3778 51.2779 -70.6518 -96.3513 51.1037 
-71.0562 -96.3168 50.9435 -71.4821 -96.2831 50.8003 -71.9224 -96.2562 50.678 
-72.7978 -96.242 50.5314 -73.749 -96.1543 50.4909 -74.2251 -96.0647 50.5055 
-74.7416 -95.9563 50.556 -75.6748 -95.9215 50.777 -76.1117 -95.6556 50.8381 
-76.7689 -95.2471 50.9721 -69.8522 -96.6484 51.5485 -69.6667 -96.743 51.6977 
-70.1417 -96.7573 51.4226 -70.5413 -96.7461 51.2474 -70.9485 -96.7175 51.0898 
-71.3691 -96.6888 50.9534 -72.2608 -96.6268 50.7398 -73.1162 -96.683 50.6835 
-75.0726 -96.3754 50.7665 -69.9034 -96.911 51.5842 -70.1186 -97.0649 51.513 
-70.1978 -97.3117 51.5641 -70.4284 -97.1398 51.4096 -70.8514 -97.1085 51.2487 
-71.6925 -97.0575 51.0069 -72.6962 -96.9767 50.8278 -73.1646 -97.1015 50.8516 
-74.0824 -96.8941 50.8037 -74.5257 -96.7766 50.8123 -70.4309 -97.4511 51.5213 
-70.2599 -97.5683 51.6552 -70.7697 -97.5062 51.4279 -71.1995 -97.444 51.2749 
-72.0232 -97.4859 51.1327 -73.0002 -97.3792 50.9844 -70.5357 -97.7043 51.6047 
-70.8225 -97.8243 51.5553 -70.9951 -98.0645 51.6322 -71.1674 -97.8343 51.4585 
-71.627 -97.7473 51.3142 -72.0682 -97.8801 51.3112 -72.5359 -97.8586 51.2652 
-71.2717 -98.1326 51.5862 -71.1949 -98.3211 51.7392 -71.5287 -98.0793 51.4957 
-71.5009 -98.3325 51.6588 -71.7532 -98.2906 51.575 -73.5807 -90.3337 51.7378 
-73.948 -90.2807 51.6338 -74.3225 -90.1327 51.6758 -75.3871 -90.0483 51.6338 
-76.3987 -90.1658 51.8188 -73.0936 -90.8699 51.3322 -72.5931 -91.0974 51.3669 
-72.3281 -91.331 51.3198 -72.8158 -90.9774 51.3617 -71.9695 -91.7395 51.1903 
-77.3597 -91.1763 51.7034 -71.6945 -92.0785 51.101 -76.8834 -91.7082 51.1932 
-77.1562 -91.6606 51.3511 -71.4882 -92.335 51.0531 -71.0352 -92.6188 51.1981 
-70.8272 -92.9089 51.2167 -71.2323 -92.467 51.1432 -76.8521 -92.3571 50.9777 
-70.5836 -93.4068 51.1875 -70.4149 -93.8088 51.1779 -76.8059 -92.7542 50.8622 
-77.1658 -93.2626 50.9808 -70.285 -94.1111 51.1946 -69.8432 -94.4306 51.4831 
-69.7665 -94.8398 51.5038 -70.0633 -94.2552 51.3325 -77.2903 -94.0287 51.0476 
-69.6001 -95.287 51.6149 -69.4759 -95.7143 51.714 -77.2119 -94.839 51.0948 
-69.3857 -96.1627 51.8154 -69.4636 -96.5395 51.8083 -76.1866 -96.0853 50.9901 
-76.5764 -95.8516 51.0642 -69.4457 -96.8655 51.9225 -75.4271 -96.8041 51.025 
-69.7303 -97.0458 51.7492 -69.962 -97.183 51.6396 -70.0338 -97.4342 51.7112 
-73.7681 -97.4045 51.0014 -74.4928 -97.1527 50.9707 -74.9312 -97.022 50.996 
-70.1105 -97.6183 51.7684 -73.2888 -97.6844 51.1355 -70.2962 -97.8594 51.826 
-70.6776 -97.9837 51.7072 -70.8732 -98.2539 51.8109 -73.1651 -98.0364 51.3507 
-72.0629 -98.3851 51.5954 -71.475 -98.6082 51.8884 -71.8139 -98.5235 51.7315 
-74.8375 -89.7568 51.9522 -74.7534 -89.6575 52.125 -74.6155 -89.7738 51.9914 
-75.1034 -89.7411 51.9332 -75.0051 -89.6322 52.1013 -75.2588 -89.6222 52.0886 
-75.6189 -89.7281 51.97 -75.4994 -89.6242 52.0906 -75.9573 -89.7114 52.1099 
-75.8516 -89.6527 52.1262 -74.6302 -89.9128 51.8197 -74.9284 -89.8981 51.7772 
-75.2272 -89.8809 51.7768 -75.7925 -89.8597 51.881 -76.1337 -89.7539 52.2162 
-72.8863 -90.5686 51.8223 -72.8011 -90.4069 52.1455 -72.5787 -90.6344 51.9439 
-73.202 -90.5061 51.7075 -73.2312 -90.2912 52.0194 -73.6234 -90.1125 52.0386 
-73.9825 -90.0559 51.9123 -76.6608 -90.193 51.9731 -72.5599 -90.8984 51.6166 
-72.2573 -90.8037 51.9486 -72.9802 -90.7359 51.5411 -77.2975 -90.5574 52.1229 
-71.7106 -91.2625 51.7912 -71.5478 -91.1412 52.0693 -71.4313 -91.3732 51.8878 
-72.0923 -91.1135 51.688 -71.8846 -90.9771 52.0033 -77.6047 -90.8256 52.1514 
-77.7153 -91.1635 51.9818 -78.3351 -91.4005 52.3185 -78.2135 -91.2174 52.3617 
-78.4695 -91.4276 52.4276 -71.4981 -91.5603 51.6496 -71.1995 -91.6085 51.8503 
-71.858 -91.4611 51.493 -77.6974 -91.5387 51.7552 -77.9931 -91.4768 51.9996 
-71.2441 -91.896 51.5552 -70.9066 -91.9343 51.8091 -71.5958 -91.8074 51.3674 
-77.8598 -91.9001 51.706 -78.4315 -91.8811 52.1462 -78.6867 -91.6872 52.5133 
-70.9578 -92.3561 51.4373 -70.5956 -92.2619 51.8008 -71.3602 -92.1505 51.2671 
-77.4769 -92.226 51.35 -78.1314 -92.1559 51.8066 -70.1979 -92.8483 51.7443 
-70.0462 -92.6609 51.9992 -69.9513 -92.9416 51.9186 -70.5354 -92.6571 51.5794 
-70.3012 -92.5024 51.8707 -77.0993 -92.579 51.0409 -77.7723 -92.5442 51.4541 
-78.421 -92.4486 51.9361 -70.0232 -93.2611 51.6906 -69.7538 -93.181 51.9896 
-70.3918 -93.0961 51.4599 -77.7005 -92.925 51.3396 -78.0786 -92.8731 51.5937 
-78.4158 -92.8086 51.8461 -69.4414 -93.7605 52.0533 -69.3057 -93.5767 52.3076 
-69.2461 -93.8807 52.2448 -69.72 -93.6093 51.8254 -69.5219 -93.4109 52.1203 
-69.9774 -93.6603 51.5629 -70.2428 -93.5183 51.3975 -69.3505 -94.1218 52.0338 
-69.1091 -94.1889 52.314 -69.5697 -93.9826 51.8399 -69.8271 -94.0316 51.5842 
-70.1252 -93.8953 51.3649 -77.6393 -93.8699 51.2375 -78.0094 -93.7228 51.4662 
-78.3831 -93.6118 51.7196 -69.2393 -94.5298 52.0551 -68.9541 -94.6152 52.3726 
[...]
POINT_DATA 2832
SCALARS ImageScalars unsigned_short
LOOKUP_TABLE default
2 2 2 2 2 2 2 2 2 
2 2 2 2 2 2 2 2 2 
2 2 2 2 2 2 2 2 2 
2 2 2 2 2 2 2 2 2 
2 2 2 2 2 2 2 2 2 
2 2 2 2 2 2 2 2 2 
2 2 2 2 2 2 2 2 2 
2 2 2 2 2 2 2 2 2 
2 2 2 2 2 2 2 2 2 
2 2 2 2 2 2 2 2 2 
2 2 2 2 2 2 2 2 2 
2 2 2 2 2 2 2 2 2 
2 2 2 2 2 2 2 2 2 
2 2 2 2 2 2 2 2 2 
2 2 2 2 2 2 2 2 2 
2 2 2 2 2 2 2 2 2 
2 2 2 2 2 2 2 2 2 
2 2 2 2 2 2 2 2 2 
2 2 2 2 2 2 2 2 2 
2 2 2 2 2 2 2 2 2 
2 2 2 2 2 2 2 2 2 
2 2 2 2 2 2 2 2 2 
2 2 2 2 2 2 2 2 2 
2 2 2 2 2 2 2 2 2 
2 2 2 2 2 2 2 2 2 
2 2 2 2 2 2 2 2 2 
2 2 2 2 2 2 2 2 2 
2 2 2 2 2 2 2 2 2 
2 2 2 2 2 2 2 2 2 
2 2 2 2 2 2 2 2 2 
2 2 2 2 2 2 2 2 2 
2 2 2 2 2 2 2 2 2 
2 2 2 2 2 2 2 2 2 
2 2 2 2 2 2 2 2 2 
2 2 2 2 2 2 2 2 2 
2 2 2 2 2 2 2 2 2 
2 2 2 2 2 2 2 2 2 
2 2 2 2 2 2 2 2 2 
2 2 2 2 2 2 2 2 2 
2 2 2 2 2 2 2 2 2 
2 2 2 2 2 2 2 2 2 
2 2 2 2 2 2 2 2 2 
2 2 2 2 2 2 2 2 2 
2 2 2 2 2 2 2 2 2 
2 2 2 2 2 2 2 2 2 
2 2 2 2 2 2 2 2 2 
2 2 2 2 2 2 2 2 2 
2 2 2 2 2 2 2 2 2 
2 2 2 2 2 2 2 2 2 
2 2 2 2 2 2 2 2 2 
2 2 2 2 2 2 2 2 2 
2 2 2 2 2 2 2 2 2 
2 2 2 2 2 2 2 2 2 
2 2 2 2 2 2 2 2 2 
2 2 2 2 2 2 2 2 2 
2 2 2 2 2 2 2 2 2 
2 2 2 2 2 2 2 2 2 
2 2 2 2 2 2 2 2 2 
2 2 2 2 2 2 2 2 2 
2 2 2 2 2 2 2 2 2 
2 2 2 2 2 2 2 2 2 
2 2 2 2 2 2 2 2 2 
2 2 2 2 2 2 2 2 2 
2 2 2 2 2 2 2 2 2 
2 2 2 2 2 2 2 2 2 
2 2 2 2 2 2 2 2 2 
2 2 2 2 2 2 2 2 2 
2 2 2 2 2 2 2 2 2 
2 2 2 2 2 2 2 2 2 
2 2 2 2 2 2 2 2 2 
2 2 2 2 2 2 2 2 2 
2 2 2 2 2 2 2 2 2 
2 2 2 2 2 2 2 2 2 
2 2 2 2 2 2 2 2 2 
2 2 2 2 2 2 2 2 2 
2 2 2 2 2 2 2 2 2 
2 2 2 2 2 2 2 2 2 
2 2 2 2 2 2 2 2 2 
2 2 2 2 2 2 2 2 2 
2 2 2 2 2 2 2 2 2 
2 2 2 2 2 2 2 2 2 
2 2 2 2 2 2 2 2 2 
2 2 2 2 2 2 2 2 2 
2 2 2 2 2 2 2 2 2 
2 2 2 2 2 2 2 2 2 
2 2 2 2 2 2 2 2 2 
2 2 2 2 2 2 2 2 2 
2 2 2 2 2 2 2 2 2 
2 2 2 2 2 2 2 2 2 
2 2 2 2 2 2 2 2 2 
2 2 2 2 2 2 2 2 2 
2 2 2 2 2 2 2 2 2 
2 2 2 2 2 2 2 2 2 
2 2 2 2 2 2 2 2 2 
2 2 2 2 2 2 2 2 2 
2 2 2 2 2 2 2 2 2 
2 2 2 2 2 2 2 2 2 
2 2 2 2 2 2 2 2 2 
2 2 2 2 2 2 2 2 2 
2 2 2 2 2 2 2 2 2 
2 2 2 2 2 2 2 2 2 
2 2 2 2 2 2 2 2 2 
2 2 2 2 2 2 2 2 2 
2 2 2 2 2 2 2 2 2 
2 2 2 2 2 2 2 2 2 
2 2 2 2 2 2 2 2 2 
2 2 2 2 2 2 2 2 2 
2 2 2 2 2 2 2 2 2 
2 2 2 2 2 2 2 2 2 
2 2 2 2 2 2 2 2 2 
2 2 2 2 2 2 2 2 2 
2 2 2 2 2 2 2 2 2 
2 2 2 2 2 2 2 2 2 
2 2 2 2 2 2 2 2 2 
2 2 2 2 2 2 2 2 2 
2 2 2 2 2 2 2 2 2 
2 2 2 2 2 2 2 2 2 
2 2 2 2 2 2 2 2 2 
2 2 2 2 2 2 2 2 2 
2 2 2 2 2 2 2 2 2 
2 2 2 2 2 2 2 2 2 
2 2 2 2 2 2 2 2 2 
2 2 2 2 2 2 2 2 2 
2 2 2 2 2 2 2 2 2 
2 2 2 2 2 2 2 2 2 
2 2 2 2 2 2 2 2 2 
2 2 2 2 2 2 2 2 2 
2 2 2 2 2 2 2 2 2 
2 2 2 2 2 2 2 2 2 
2 2 2 2 2 2 2 2 2 
2 2 2 2 2 2 2 2 2 
2 2 2 2 2 2 2 2 2 
2 2 2 2 2 2 2 2 2 
2 2 2 2 2 2 2 2 2 
2 2 2 2 2 2 2 2 2 
2 2 2 2 2 2 2 2 2 
2 2 2 2 2 2 2 2 2 
2 2 2 2 2 2 2 2 2 
2 2 2 2 2 2 2 2 2 
2 2 2 2 2 2 2 2 2 
2 2 2 2 2 2 2 2 2 
2 2 2 2 2 2 2 2 2 
2 2 2 2 2 2 2 2 2 
2 2 2 2 2 2 2 2 2 
2 2 2 2 2 2 2 2 2 
2 2 2 2 2 2 2 2 2 
2 2 2 2 2 2 2 2 2 
2 2 2 2 2 2 2 2 2 
2 2 2 2 2 2 2 2 2 
2 2 2 2 2 2 2 2 2 
2 2 2 2 2 2 2 2 2 
2 2 2 2 2 2 2 2 2 
2 2 2 2 2 2 2 2 2 
2 2 2 2 2 2 2 2 2 
2 2 2 2 2 2 2 2 2 
2 2 2 2 2 2 2 2 2 
2 2 2 2 2 2 2 2 2 
2 2 2 2 2 2 2 2 2 
2 2 2 2 2 2 2 2 2 
2 2 2 2 2 2 2 2 2 
2 2 2 2 2 2 2 2 2 
2 2 2 2 2 2 2 2 2 
2 2 2 2 2 2 2 2 2 
2 2 2 2 2 2 2 2 2 
2 2 2 2 2 2 2 2 2 
2 2 2 2 2 2 2 2 2 
2 2 2 2 2 2 2 2 2 
2 2 2 2 2 2 2 2 2 
2 2 2 2 2 2 2 2 2 
2 2 2 2 2 2 2 2 2 
2 2 2 2 2 2 2 2 2 
2 2 2 2 2 2 2 2 2 
2 2 2 2 2 2 2 2 2 
2 2 2 2 2 2 2 2 2 
2 2 2 2 2 2 2 2 2 
2 2 2 2 2 2 2 2 2 
2 2 2 2 2 2 2 2 2 
2 2 2 2 2 2 2 2 2 
2 2 2 2 2 2 2 2 2 
2 2 2 2 2 2 2 2 2 
2 2 2 2 2 2 2 2 2 
2 2 2 2 2 2 2 2 2 
2 2 2 2 2 2 2 2 2 
2 2 2 2 2 2 2 2 2 
2 2 2 2 2 2 2 2 2 
2 2 2 2 2 2 2 2 2 
2 2 2 2 2 2 2 2 2 
2 2 2 2 2 2 2 2 2 
2 2 2 2 2 2 2 2 2 
2 2 2 2 2 2 2 2 2 
2 2 2 2 2 2 2 2 2 
2 2 2 2 2 2 2 2 2 
2 2 2 2 2 2 2 2 2 
2 2 2 2 2 2 2 2 2 
2 2 2 2 2 2 2 2 2 
2 2 2 2 2 2 2 2 2 
2 2 2 2 2 2 2 2 2 
2 2 2 2 2 2 2 2 2 
2 2 2 2 2 2 2 2 2 
2 2 2 2 2 2 2 2 2 
2 2 2 2 2 2 2 2 2 
2 2 2 2 2 2 2 2 2 
2 2 2 2 2 2 2 2 2 
2 2 2 2 2 2 2 2 2 
2 2 2 2 2 2 2 2 2 
2 2 2 2 2 2 2 2 2 
2 2 2 2 2 2 2 2 2 
2 2 2 2 2 2 2 2 2 
2 2 2 2 2 2 2 2 2 
2 2 2 2 2 2 2 2 2 
2 2 2 2 2 2 2 2 2 
2 2 2 2 2 2 2 2 2 
2 2 2 2 2 2 2 2 2 
2 2 2 2 2 2 2 2 2 
2 2 2 2 2 2 2 2 2 
2 2 2 2 2 2 2 2 2 
2 2 2 2 2 2 2 2 2 
2 2 2 2 2 2 2 2 2 
2 2 2 2 2 2 2 2 2 
2 2 2 2 2 2 2 2 2 
2 2 2 2 2 2 2 2 2 
2 2 2 2 2 2 2 2 2 
2 2 2 2 2 2 2 2 2 
2 2 2 2 2 2 2 2 2 
2 2 2 2 2 2 2 2 2 
2 2 2 2 2 2 2 2 2 
2 2 2 2 2 2 2 2 2 
2 2 2 2 2 2 2 2 2 
2 2 2 2 2 2 2 2 2 
2 2 2 2 2 2 2 2 2 
2 2 2 2 2 2 2 2 2 
2 2 2 2 2 2 2 2 2 
2 2 2 2 2 2 2 2 2 
2 2 2 2 2 2 2 2 2 
2 2 2 2 2 2 2 2 2 
2 2 2 2 2 2 2 2 2 
2 2 2 2 2 2 2 2 2 
2 2 2 2 2 2 2 2 2 
2 2 2 2 2 2 2 2 2 
2 2 2 2 2 2 2 2 2 
2 2 2 2 2 2 2 2 2 
2 2 2 2 2 2 2 2 2 
2 2 2 2 2 2 2 2 2 
2 2 2 2 2 2 2 2 2 
2 2 2 2 2 2 2 2 2 
2 2 2 2 2 2 2 2 2 
2 2 2 2 2 2 2 2 2 
2 2 2 2 2 2 2 2 2 
2 2 2 2 2 2 2 2 2 
2 2 2 2 2 2 2 2 2 
2 2 2 2 2 2 2 2 2 
2 2 2 2 2 2 2 2 2 
2 2 2 2 2 2 2 2 2 
2 2 2 2 2 2 2 2 2 
2 2 2 2 2 2 2 2 2 
2 2 2 2 2 2 2 2 2 
2 2 2 2 2 2 2 2 2 
2 2 2 2 2 2 2 2 2 
2 2 2 2 2 2 2 2 2 
2 2 2 2 2 2 2 2 2 
2 2 2 2 2 2 2 2 2 
2 2 2 2 2 2 2 2 2 
2 2 2 2 2 2 2 2 2 
2 2 2 2 2 2 2 2 2 
2 2 2 2 2 2 2 2 2 
2 2 2 2 2 2 2 2 2 
2 2 2 2 2 2 2 2 2 
2 2 2 2 2 2 2 2 2 
2 2 2 2 2 2 2 2 2 
2 2 2 2 2 2 2 2 2 
2 2 2 2 2 2 2 2 2 
2 2 2 2 2 2 2 2 2 
2 2 2 2 2 2 2 2 2 
2 2 2 2 2 2 2 2 2 
2 2 2 2 2 2 2 2 2 
2 2 2 2 2 2 2 2 2 
2 2 2 2 2 2 2 2 2 
2 2 2 2 2 2 2 2 2 
2 2 2 2 2 2 2 2 2 
2 2 2 2 2 2 2 2 2 
2 2 2 2 2 2 2 2 2 
2 2 2 2 2 2 2 2 2 
2 2 2 2 2 2 2 2 2 
2 2 2 2 2 2 2 2 2 
2 2 2 2 2 2 2 2 2 
2 2 2 2 2 2 2 2 2 
2 2 2 2 2 2 2 2 2 
2 2 2 2 2 2 2 2 2 
2 2 2 2 2 2 2 2 2 
2 2 2 2 2 2 2 2 2 
2 2 2 2 2 2 2 2 2 
2 2 2 2 2 2 2 2 2 
2 2 2 2 2 2 2 2 2 
2 2 2 2 2 2 2 2 2 
2 2 2 2 2 2 2 2 2 
2 2 2 2 2 2 2 2 2 
2 2 2 2 2 2 2 2 2 
2 2 2 2 2 2 2 2 2 
2 2 2 2 2 2 2 2 2 
2 2 2 2 2 2 2 2 2 
2 2 2 2 2 2 2 2 2 
2 2 2 2 2 2 2 2 2 
2 2 2 2 2 2 2 2 2 
2 2 2 2 2 2 2 2 2 
2 2 2 2 2 2 2 2 2 
2 2 2 2 2 2 2 2 2 
2 2 2 2 2 2 2 2 2 
2 2 2 2 2 2 2 2 2 
2 2 2 2 2 2 2 2 2 
2 2 2 2 2 2 2 2 2 
2 2 2 2 2 2 2 2 2 
2 2 2 2 2 2 2 2 2 
2 2 2 2 2 2 2 2 2 
2 2 2 2 2 2 2 2 2 
2 2 2 2 2 2 
METADATA
INFORMATION 0

NORMALS Normals float
0.0706527 0.389034 -0.91851 0.206138 0.504168 -0.838643 -0.110452 0.489481 -0.86499 
0.0746603 0.201264 -0.976687 -0.210605 0.223824 -0.951603 0.363949 0.327782 -0.871837 
0.370791 0.248289 -0.894911 0.274888 0.283728 -0.918659 0.230818 0.367507 -0.900923 
0.11112 0.29601 -0.948699 0.336579 0.167598 -0.92662 0.411745 0.194448 -0.890312 
0.259729 0.172823 -0.950091 0.102107 0.1441 -0.984281 -0.0406274 0.224009 -0.97374 
0.347273 0.099968 -0.93242 0.396755 0.110835 -0.911209 0.262341 0.086538 -0.961087 
0.180151 0.0838104 -0.980062 0.394812 0.0385797 -0.917952 0.289961 0.0287024 -0.956608 
0.180159 0.0088323 -0.983598 0.111359 0.0351229 -0.993159 0.0293174 0.0959218 -0.994957 
0.305308 -0.0246181 -0.951935 0.193381 -0.0547918 -0.979593 0.0324166 0.0080896 -0.999442 
0.0838197 -0.063628 -0.994447 -0.111699 -0.0771513 -0.990743 0.341548 -0.104349 -0.934054 
0.227556 -0.114035 -0.967065 0.12429 -0.155614 -0.979967 0.0125399 -0.167883 -0.985727 
0.201456 -0.208297 -0.957093 0.0224299 -0.245638 -0.969102 -0.120766 -0.213059 -0.969547 
0.167556 0.5479 -0.819592 -0.00897442 0.630491 -0.776144 -0.274346 0.386873 -0.880377 
0.306607 0.196726 -0.931285 0.410395 0.376941 -0.830356 0.437158 0.305433 -0.845933 
0.327323 0.403113 -0.854611 0.264553 0.41524 -0.870395 0.166047 0.427895 -0.888445 
-0.0306409 0.295885 -0.954732 0.0697825 0.0791322 -0.994419 -0.204124 0.146758 -0.967882 
0.441345 0.206423 -0.873272 0.451259 0.118807 -0.884449 -0.0913761 0.175281 -0.980269 
0.441576 0.0213674 -0.896969 0.437609 -0.0766868 -0.895889 -0.0972194 0.0570549 -0.993626 
0.388 -0.164387 -0.906881 0.29541 -0.228482 -0.927647 0.124366 -0.255224 -0.95885 
0.162674 0.658015 -0.735223 0.241397 0.706097 -0.665698 0.239494 0.670545 -0.702148 
0.111543 0.639592 -0.760579 0.0992239 0.636632 -0.764758 -0.00791033 0.563565 -0.826034 
0.060604 0.633549 -0.771325 -0.0546381 0.595197 -0.80172 -0.145807 0.559274 -0.81606 
-0.217822 0.556883 -0.801521 -0.203776 0.634354 -0.745702 -0.234693 0.666865 -0.707256 
-0.341416 0.506873 -0.791527 -0.246337 0.631358 -0.735327 -0.354156 0.684823 -0.63686 
-0.476765 0.619231 -0.623898 0.0879684 0.575647 -0.812953 0.0258454 0.566955 -0.823343 
-0.0499461 0.51976 -0.852851 -0.0998727 0.506681 -0.856329 -0.154886 0.485647 -0.860324 
-0.209196 0.465409 -0.860019 -0.262361 0.483137 -0.835311 -0.44617 0.45127 -0.772844 
-0.548942 0.551738 -0.627892 0.293071 0.541341 -0.788073 0.359967 0.603531 -0.711459 
0.360499 0.542793 -0.758562 0.243203 0.5884 -0.771127 0.292365 0.616634 -0.730949 
0.185888 0.575394 -0.796472 -0.0435982 0.50414 -0.862521 -0.16475 0.426446 -0.889383 
-0.28596 0.399047 -0.871199 -0.349868 0.398655 -0.847742 0.38891 0.53452 -0.750358 
0.239849 0.513529 -0.823869 -0.0833715 0.544123 -0.834853 -0.155123 0.433926 -0.887494 
-0.236612 0.352746 -0.905309 -0.258194 0.376775 -0.889593 -0.4255 0.37749 -0.822466 
-0.52368 0.438187 -0.730583 0.348436 0.482105 -0.803845 0.392522 0.488489 -0.779298 
0.283026 0.478988 -0.830943 0.244418 0.363742 -0.898862 -0.23637 0.353716 -0.904994 
-0.21829 0.332972 -0.917322 -0.36442 0.342212 -0.866077 -0.460858 0.364436 -0.809195 
0.393145 0.423226 -0.816282 0.413248 0.43938 -0.797604 0.294906 0.45702 -0.839144 
-0.243215 0.223033 -0.943983 -0.253508 0.272867 -0.92805 -0.284531 0.293567 -0.912612 
-0.331373 0.282995 -0.900059 0.476121 0.320599 -0.818856 0.524404 0.366124 -0.768735 
0.536424 0.299629 -0.788969 0.426117 0.359957 -0.829973 0.463997 0.395268 -0.792761 
-0.150763 0.14693 -0.97759 -0.213835 0.149045 -0.965433 -0.257052 0.209574 -0.9434 
-0.267094 0.190725 -0.944608 -0.29267 0.230219 -0.928086 0.49987 0.242378 -0.831494 
0.543211 0.252278 -0.800798 0.453345 0.270816 -0.849198 -0.163999 0.158905 -0.973578 
-0.248819 0.105675 -0.962768 -0.284211 0.143335 -0.947987 -0.31637 0.217902 -0.92327 
0.510799 0.168751 -0.842976 0.524561 0.186023 -0.830802 0.476505 0.183695 -0.859767 
-0.18618 0.0942661 -0.977983 -0.228316 0.0564207 -0.971951 -0.270873 0.0822884 -0.959091 
-0.297473 0.0776133 -0.95157 -0.378036 0.0572636 -0.924018 0.499962 0.0847107 -0.861895 
0.511367 0.114386 -0.851716 0.485358 0.0959026 -0.86904 -0.228754 -0.000205003 -0.973484 
-0.238432 -0.0208592 -0.970935 -0.282569 0.00610933 -0.959228 -0.344744 -0.0157709 -0.938564 
-0.4284 -0.00468671 -0.903577 0.513568 0.0209053 -0.857794 0.589299 0.0719679 -0.804704 
0.574572 0.019167 -0.818229 0.53321 0.079973 -0.842194 0.46614 -0.00555394 -0.884694 
0.474817 -0.0183907 -0.879893 -0.233366 -0.0938265 -0.967852 -0.256961 -0.0465077 -0.965302 
-0.310903 -0.0434128 -0.94945 0.511809 -0.0363021 -0.858332 0.582155 -0.0103292 -0.813012 
0.45767 -0.0479392 -0.887829 -0.187072 -0.205134 -0.960689 -0.230639 -0.146696 -0.961918 
-0.242152 -0.117792 -0.963062 -0.280604 -0.122592 -0.951963 -0.301524 -0.10126 -0.948066 
-0.353203 -0.085574 -0.931625 -0.403628 -0.0636109 -0.912709 0.510932 -0.0734936 -0.856474 
0.575421 -0.0429563 -0.816728 0.448047 -0.0970811 -0.888723 0.391189 -0.119073 -0.912575 
0.241105 -0.2653 -0.933533 0.0533706 -0.297262 -0.953303 -0.0352159 -0.286839 -0.957331 
-0.0968273 -0.270445 -0.957854 -0.249166 -0.189492 -0.949741 -0.398422 -0.1203 -0.909279 
0.503194 -0.105889 -0.857662 0.57205 -0.0792109 -0.816385 0.439147 -0.13755 -0.887823 
0.383377 -0.164297 -0.908861 0.328755 -0.185656 -0.925987 0.295484 -0.215187 -0.930797 
0.144616 -0.304195 -0.941569 0.00177955 -0.327521 -0.944842 -0.135853 -0.281143 -0.950001 
-0.202118 -0.238596 -0.949853 -0.23611 -0.257287 -0.937046 -0.270222 -0.215872 -0.938285 
-0.302107 -0.194076 -0.933309 -0.339128 -0.158707 -0.927256 0.494923 -0.137802 -0.85794 
0.57548 -0.128732 -0.807621 0.427524 -0.175096 -0.886885 0.370839 -0.205403 -0.905697 
0.317727 -0.231445 -0.919501 0.260246 -0.264813 -0.928518 0.215587 -0.29349 -0.931336 
0.0755905 -0.340047 -0.937366 -0.0594232 -0.33488 -0.940385 -0.121968 -0.329653 -0.93619 
-0.183906 -0.305744 -0.934183 -0.266298 -0.278667 -0.92273 -0.309812 -0.248225 -0.917824 
-0.377405 -0.214274 -0.900917 0.508997 -0.179366 -0.841873 0.585086 -0.214503 -0.782088 
0.419039 -0.212 -0.882872 0.358998 -0.24733 -0.899971 0.299215 -0.277681 -0.912887 
0.252585 -0.298222 -0.92047 0.152464 -0.373199 -0.915138 0.00891254 -0.364331 -0.931227 
-0.217665 -0.329484 -0.918729 0.503091 -0.241651 -0.829762 0.417687 -0.270025 -0.867539 
0.407118 -0.347179 -0.844821 0.342637 -0.293594 -0.892414 0.294108 -0.313305 -0.902962 
0.1911 -0.346876 -0.918236 0.103182 -0.402892 -0.909413 0.0156453 -0.395674 -0.918258 
-0.0931082 -0.378661 -0.92084 -0.153981 -0.362684 -0.919103 0.341316 -0.373719 -0.86246 
0.405833 -0.440335 -0.800877 0.288339 -0.37258 -0.882069 0.237213 -0.358555 -0.902866 
0.114793 -0.406594 -0.906368 0.0709641 -0.4514 -0.889496 0.351801 -0.449283 -0.821207 
0.296472 -0.442107 -0.846549 0.283669 -0.504388 -0.815552 0.233964 -0.425081 -0.874395 
0.162643 -0.418838 -0.893377 0.100205 -0.454744 -0.884967 0.0517259 -0.474242 -0.878874 
0.230454 -0.503474 -0.832709 0.267017 -0.596829 -0.756635 0.180287 -0.471977 -0.86298 
0.199994 -0.566835 -0.799187 0.138479 -0.512169 -0.847648 0.303634 0.756127 -0.579723 
0.212039 0.717761 -0.663218 0.217629 0.727423 -0.650763 -0.078889 0.644734 -0.760326 
-0.3611 0.76951 -0.526746 0.278896 0.669746 -0.688227 0.408286 0.648787 -0.642167 
0.418054 0.609001 -0.674054 0.353331 0.669089 -0.653817 0.415652 0.554753 -0.720751 
-0.53189 0.423125 -0.733524 0.433976 0.511102 -0.741916 -0.406241 0.309296 -0.859828 
-0.47779 0.305434 -0.823667 0.462848 0.465425 -0.754421 0.569502 0.411929 -0.711324 
0.572368 0.354563 -0.739378 0.517668 0.446271 -0.729974 -0.395851 0.247891 -0.884224 
0.555008 0.278798 -0.783733 0.549534 0.214834 -0.807378 -0.37122 0.153419 -0.915783 
-0.477461 0.068576 -0.875973 0.558669 0.153331 -0.815095 0.648861 0.118686 -0.751594 
0.64161 0.0628295 -0.764453 0.60702 0.137305 -0.782735 -0.461446 -0.055113 -0.885455 
0.633926 0.0254611 -0.772975 0.628208 -0.0206742 -0.777771 -0.431888 -0.137232 -0.891426 
0.629495 -0.0839326 -0.772458 0.629552 -0.168886 -0.758381 -0.321866 -0.302861 -0.897038 
-0.355635 -0.279687 -0.891795 0.638381 -0.264798 -0.722739 -0.238392 -0.392899 -0.888144 
0.58423 -0.293555 -0.756638 0.498314 -0.320637 -0.805528 0.492022 -0.407966 -0.769076 
-0.055659 -0.427173 -0.902455 -0.148153 -0.419815 -0.895436 -0.19721 -0.40561 -0.892518 
0.480709 -0.484031 -0.731186 0.00478722 -0.489648 -0.871907 0.4389 -0.515139 -0.736206 
0.355406 -0.507256 -0.785097 0.322764 -0.573506 -0.752937 0.00544184 -0.525768 -0.850611 
0.0823998 -0.549807 -0.831218 0.220498 -0.638316 -0.737518 0.152449 -0.605747 -0.780916 
0.129283 0.786496 -0.603913 0.188988 0.868453 -0.458337 0.237784 0.799071 -0.552218 
0.0458847 0.777827 -0.626801 0.0944466 0.856985 -0.506613 0.0064567 0.830692 -0.556695 
-0.0965816 0.741121 -0.664388 -0.0654266 0.846362 -0.528574 -0.349771 0.747708 -0.56444 
-0.239776 0.835596 -0.494253 0.154969 0.714791 -0.681952 0.0673962 0.691276 -0.719441 
-0.0147608 0.719373 -0.694467 -0.225605 0.681961 -0.695724 -0.455301 0.800363 -0.390026 
0.363776 0.764696 -0.53189 0.354482 0.826762 -0.436815 0.386227 0.763455 -0.517653 
0.313108 0.756125 -0.574664 0.351773 0.813819 -0.462553 0.331139 0.811781 -0.480997 
0.287465 0.786664 -0.546373 -0.40833 0.791222 -0.455231 0.40171 0.701333 -0.588864 
0.409631 0.739437 -0.534261 0.331771 0.725515 -0.602956 -0.549936 0.574481 -0.606253 
0.447136 0.660664 -0.602986 0.480813 0.700252 -0.527698 0.500201 0.642591 -0.58041 
0.415412 0.674284 -0.610552 0.433462 0.721742 -0.539629 -0.584341 0.555225 -0.591837 
-0.552895 0.488478 -0.675053 -0.609961 0.454292 -0.649281 -0.586566 0.578876 -0.56643 
-0.680467 0.504676 -0.531288 0.482719 0.596093 -0.641604 0.538986 0.596146 -0.595066 
0.432519 0.610686 -0.663317 -0.524086 0.362233 -0.770792 -0.558234 0.398598 -0.727664 
0.524574 0.543191 -0.655566 0.551671 0.556057 -0.621658 0.464419 0.556827 -0.688664 
-0.539181 0.299198 -0.787251 -0.61676 0.328684 -0.715244 -0.71021 0.409304 -0.572776 
0.557963 0.47507 -0.680431 0.552487 0.515792 -0.654765 0.503242 0.510169 -0.697477 
-0.502839 0.264801 -0.82282 -0.568643 0.251449 -0.783211 0.602458 0.3912 -0.695706 
0.642491 0.435474 -0.63053 0.657686 0.37971 -0.650592 0.563435 0.425799 -0.70798 
0.58597 0.467758 -0.661696 -0.472069 0.190144 -0.860811 -0.533941 0.197114 -0.822225 
-0.606629 0.229005 -0.761287 0.63097 0.32537 -0.704281 0.677241 0.351281 -0.646487 
0.580771 0.345532 -0.737098 -0.522731 0.104682 -0.846046 -0.558663 0.134261 -0.818456 
-0.587306 0.151946 -0.794974 0.726239 0.256262 -0.637893 0.776466 0.294704 -0.557001 
0.779543 0.242204 -0.577624 0.673924 0.275588 -0.685476 0.718089 0.316311 -0.619916 
0.637956 0.26113 -0.724447 0.589892 0.282743 -0.756362 0.737634 0.189693 -0.648007 
0.785319 0.214969 -0.580571 0.692935 0.20703 -0.690638 0.657823 0.193102 -0.727997 
0.605594 0.212064 -0.766997 -0.505258 -0.00104513 -0.862967 -0.541953 0.0368988 -0.839598 
-0.570912 0.0564164 -0.819071 0.733932 0.155422 -0.661201 0.771984 0.190635 -0.606382 
0.689266 0.137807 -0.711282 -0.517277 -0.0355015 -0.855081 0.723364 0.125909 -0.67889 
0.759756 0.152796 -0.632001 0.682714 0.0961296 -0.724335 -0.478636 -0.0967061 -0.872672 
-0.505338 -0.11195 -0.855629 -0.55251 -0.0423455 -0.83243 0.711394 0.0864561 -0.697456 
0.761008 0.0913677 -0.642277 0.674 0.0536484 -0.736781 -0.457067 -0.176316 -0.871781 
0.716656 0.0355257 -0.696522 0.765459 0.00293931 -0.643478 0.66487 -0.0010426 -0.746958 
-0.424203 -0.234821 -0.874592 -0.473574 -0.195967 -0.858676 -0.52223 -0.146343 -0.840154 
0.711383 -0.0440298 -0.701424 0.664127 -0.0849984 -0.742772 0.660993 -0.174282 -0.729873 
-0.272964 -0.351107 -0.895664 -0.389559 -0.298178 -0.871398 -0.438542 -0.269444 -0.857368 
-0.503856 -0.226808 -0.833479 0.671325 -0.263496 -0.692742 -0.320615 -0.377641 -0.868673 
-0.360087 -0.35174 -0.86407 -0.416942 -0.349714 -0.838963 -0.476156 -0.300874 -0.826287 
0.6124 -0.363818 -0.701857 0.655922 -0.342143 -0.672833 0.564023 -0.381682 -0.732254 
-0.0971444 -0.501683 -0.859579 -0.139857 -0.458134 -0.877812 -0.27322 -0.429438 -0.860775 
-0.384268 -0.379612 -0.841566 -0.451274 -0.35908 -0.816953 0.609121 -0.418012 -0.673971 
0.547055 -0.467287 -0.694532 -0.0472595 -0.526723 -0.848722 -0.126553 -0.533776 -0.836103 
-0.178827 -0.479822 -0.858948 -0.218174 -0.47889 -0.850332 0.578808 -0.484509 -0.655921 
0.510403 -0.521202 -0.683986 0.433668 -0.564614 -0.702241 0.386371 -0.559316 -0.733405 
0.0470051 -0.554555 -0.830818 -0.0301569 -0.563918 -0.82528 -0.0773127 -0.561934 -0.823561 
-0.17503 -0.563577 -0.807308 0.390525 -0.635321 -0.666226 0.340879 -0.622092 -0.704842 
0.275841 -0.662148 -0.696758 0.15175 -0.642114 -0.751439 0.134572 0.927501 -0.348757 
0.0497274 0.922302 -0.383258 -0.0273679 0.921764 -0.386785 -0.126245 0.917091 -0.378162 
-0.382974 0.872683 -0.302911 0.312903 0.835779 -0.451183 -0.429786 0.871667 -0.235543 
0.363777 0.855888 -0.36759 0.395772 0.802582 -0.446348 0.358455 0.865608 -0.349617 
0.353502 0.848061 -0.394752 -0.458729 0.8122 -0.360416 -0.441682 0.806077 -0.393899 
-0.510919 0.730093 -0.453791 0.418579 0.782302 -0.461297 -0.539239 0.696251 -0.473767 
0.517667 0.719332 -0.46323 0.540355 0.662062 -0.519317 0.457712 0.755313 -0.469044 
-0.623485 0.614378 -0.483536 -0.652886 0.634462 -0.413759 -0.732107 0.56601 -0.379014 
0.563431 0.627823 -0.537014 -0.771678 0.483225 -0.413529 0.560235 0.599341 -0.571775 
-0.663747 0.29196 -0.688621 -0.771806 0.360707 -0.523647 0.577744 0.542375 -0.609951 
0.681909 0.479136 -0.552656 0.700879 0.436585 -0.564058 0.630276 0.51445 -0.581457 
-0.636825 0.179875 -0.749733 0.71362 0.38587 -0.584679 0.815884 0.330989 -0.474109 
0.820273 0.287332 -0.494563 0.764877 0.359697 -0.534397 -0.611874 0.0912856 -0.78567 
0.807999 0.264207 -0.526624 -0.591643 0.0199552 -0.805953 0.787849 0.227641 -0.572253 
-0.595405 -0.0222307 -0.803118 0.787798 0.139683 -0.599886 -0.567936 -0.0868266 -0.81848 